      -----------------------------------------------------------      
     |                   =====================                   |     
     |                           x T B                           |     
     |                   =====================                   |     
     |                         S. Grimme                         |     
     |          Mulliken Center for Theoretical Chemistry        |     
     |                    University of Bonn                     |     
      -----------------------------------------------------------      

   * xtb version 6.6.1 (unknown-commit) compiled by '@Linux' on 12/27/2023

   xtb is free software: you can redistribute it and/or modify it under
   the terms of the GNU Lesser General Public License as published by
   the Free Software Foundation, either version 3 of the License, or
   (at your option) any later version.
   
   xtb is distributed in the hope that it will be useful,
   but WITHOUT ANY WARRANTY; without even the implied warranty of
   MERCHANTABILITY or FITNESS FOR A PARTICULAR PURPOSE.  See the
   GNU Lesser General Public License for more details.
   
   Cite this work as:
   * C. Bannwarth, E. Caldeweyher, S. Ehlert, A. Hansen, P. Pracht,
     J. Seibert, S. Spicher, S. Grimme, WIREs Comput. Mol. Sci., 2020, 11,
     e01493. DOI: 10.1002/wcms.1493
   
   for GFN2-xTB:
   * C. Bannwarth, S. Ehlert and S. Grimme., J. Chem. Theory Comput., 2019,
     15, 1652-1671. DOI: 10.1021/acs.jctc.8b01176
   for GFN1-xTB:
   * S. Grimme, C. Bannwarth, P. Shushkov, J. Chem. Theory Comput., 2017,
     13, 1989-2009. DOI: 10.1021/acs.jctc.7b00118
   for GFN0-xTB:
   * P. Pracht, E. Caldeweyher, S. Ehlert, S. Grimme, ChemRxiv, 2019, preprint.
     DOI: 10.26434/chemrxiv.8326202.v1
   for GFN-FF:
   * S. Spicher and S. Grimme, Angew. Chem. Int. Ed., 2020, 59, 15665-15673.
     DOI: 10.1002/anie.202004239
   
   for ALPB and GBSA implicit solvation:
   * S. Ehlert, M. Stahn, S. Spicher, S. Grimme, J. Chem. Theory Comput.,
     2021, 17, 4250-4261. DOI: 10.1021/acs.jctc.1c00471
   
   for DFT-D4:
   * E. Caldeweyher, C. Bannwarth and S. Grimme, J. Chem. Phys., 2017,
     147, 034112. DOI: 10.1063/1.4993215
   * E. Caldeweyher, S. Ehlert, A. Hansen, H. Neugebauer, S. Spicher,
     C. Bannwarth and S. Grimme, J. Chem. Phys., 2019, 150, 154122.
     DOI: 10.1063/1.5090222
   * E. Caldeweyher, J.-M. Mewes, S. Ehlert and S. Grimme, Phys. Chem. Chem. Phys.
     2020, 22, 8499-8512. DOI: 10.1039/D0CP00502A
   
   for sTDA-xTB:
   * S. Grimme and C. Bannwarth, J. Chem. Phys., 2016, 145, 054103.
     DOI: 10.1063/1.4959605
   
   in the mass-spec context:
   * V. Asgeirsson, C. Bauer and S. Grimme, Chem. Sci., 2017, 8, 4879.
     DOI: 10.1039/c7sc00601b
   * J. Koopman and S. Grimme, ACS Omega 2019, 4, 12, 15120-15133.
     DOI: 10.1021/acsomega.9b02011
   
   for metadynamics refer to:
   * S. Grimme, J. Chem. Theory Comput., 2019, 155, 2847-2862
     DOI: 10.1021/acs.jctc.9b00143
   
   for SPH calculations refer to:
   * S. Spicher and S. Grimme, J. Chem. Theory Comput., 2021, 17, 1701-1714
     DOI: 10.1021/acs.jctc.0c01306
   
   with help from (in alphabetical order)
   P. Atkinson, C. Bannwarth, F. Bohle, G. Brandenburg, E. Caldeweyher
   M. Checinski, S. Dohm, S. Ehlert, S. Ehrlich, I. Gerasimov, C. Hölzer
   A. Katbashev, J. Koopman, C. Lavigne, S. Lehtola, F. März, M. Müller,
   F. Musil, H. Neugebauer, J. Pisarek, C. Plett, P. Pracht, F. Pultar,
   J. Seibert, P. Shushkov, S. Spicher, M. Stahn, M. Steiner, T. Strunk,
   J. Stückrath, T. Rose, and J. Unsleber
   
 * started run on 2024/01/10 at 15:34:28.848     

           -------------------------------------------------
          |                Calculation Setup                |
           -------------------------------------------------

          program call               : xtb struc.xyz --gfn2 --hess
          hostname                   : swaroop
          coordinate file            : struc.xyz
          omp threads                :                     1

   ID    Z sym.   atoms
    1    8 O      1, 23, 31, 39, 47
    2    6 C      2, 5, 9, 13, 17, 22, 30, 38, 46
    3    1 H      3, 4, 6, 7, 10-12, 14-16, 18-21, 25, 26, 28, 29, 33, 34,
                  36, 37, 41, 42, 44, 45, 49, 50, 52, 53
    4    7 N      8, 24, 27, 32, 35, 40, 43, 48, 51

molecular fragmentation (1/2 indicates fragments):
11111111111111111111122222222222222222222222222222222
# atoms in fragment 1/2:    21    32
 fragment masses (1/2) :      104.17      240.22
CMA distance (Bohr)    :   6.058
constraining FC (au)   :  0.0500

           -------------------------------------------------
          |                 G F N 2 - x T B                 |
           -------------------------------------------------

        Reference                      10.1021/acs.jctc.8b01176
      * Hamiltonian:
        H0-scaling (s, p, d)           1.850000    2.230000    2.230000
        zeta-weighting                 0.500000
      * Dispersion:
        s8                             2.700000
        a1                             0.520000
        a2                             5.000000
        s9                             5.000000
      * Repulsion:
        kExp                           1.500000    1.000000
        rExp                           1.000000
      * Coulomb:
        alpha                          2.000000
        third order                    shell-resolved
        anisotropic                    true
        a3                             3.000000
        a5                             4.000000
        cn-shift                       1.200000
        cn-exp                         4.000000
        max-rad                        5.000000


          ...................................................
          :                      SETUP                      :
          :.................................................:
          :  # basis functions                 122          :
          :  # atomic orbitals                 122          :
          :  # shells                           76          :
          :  # electrons                       140          :
          :  max. iterations                   250          :
          :  Hamiltonian                  GFN2-xTB          :
          :  restarted?                      false          :
          :  GBSA solvation                  false          :
          :  PC potential                    false          :
          :  electronic temp.          300.0000000     K    :
          :  accuracy                    1.0000000          :
          :  -> integral cutoff          0.2500000E+02      :
          :  -> integral neglect         0.1000000E-07      :
          :  -> SCF convergence          0.1000000E-05 Eh   :
          :  -> wf. convergence          0.1000000E-03 e    :
          :  Broyden damping             0.4000000          :
          ...................................................

 iter      E             dE          RMSdq      gap      omega  full diag
   1    -81.5586852 -0.815587E+02  0.434E+00    5.12       0.0  T
   2    -81.8409615 -0.282276E+00  0.235E+00    6.12       1.0  T
   3    -81.8466837 -0.572217E-02  0.113E+00    5.92       1.0  T
   4    -81.8481287 -0.144501E-02  0.246E-01    5.94       1.0  T
   5    -81.8490404 -0.911735E-03  0.919E-02    5.88       1.0  T
   6    -81.8490651 -0.247057E-04  0.264E-02    5.91       1.0  T
   7    -81.8490692 -0.405050E-05  0.763E-03    5.91       1.8  T
   8    -81.8490695 -0.297898E-06  0.265E-03    5.90       5.2  T
   9    -81.8490695 -0.129807E-07  0.909E-04    5.90      15.1  T
  10    -81.8490695 -0.621057E-08  0.177E-04    5.90      77.8  T

   *** convergence criteria satisfied after 10 iterations ***

         #    Occupation            Energy/Eh            Energy/eV
      -------------------------------------------------------------
         1        2.0000           -0.8023820             -21.8339
       ...           ...                  ...                  ...
        64        2.0000           -0.4954354             -13.4815
        65        2.0000           -0.4945443             -13.4572
        66        2.0000           -0.4938104             -13.4373
        67        2.0000           -0.4934244             -13.4268
        68        2.0000           -0.4914754             -13.3737
        69        2.0000           -0.4894862             -13.3196
        70        2.0000           -0.4866490             -13.2424 (HOMO)
        71                         -0.2698625              -7.3433 (LUMO)
        72                         -0.2662807              -7.2459
        73                         -0.2639695              -7.1830
        74                         -0.2621842              -7.1344
        75                         -0.1563287              -4.2539
       ...                                ...                  ...
       122                          0.5644106              15.3584
      -------------------------------------------------------------
                  HL-Gap            0.2167866 Eh            5.8991 eV
             Fermi-level           -0.3782558 Eh          -10.2929 eV

 SCC (total)                   0 d,  0 h,  0 min,  0.080 sec
 SCC setup                      ...        0 min,  0.000 sec (  0.361%)
 Dispersion                     ...        0 min,  0.001 sec (  0.723%)
 classical contributions        ...        0 min,  0.000 sec (  0.238%)
 integral evaluation            ...        0 min,  0.008 sec ( 10.240%)
 iterations                     ...        0 min,  0.042 sec ( 52.576%)
 molecular gradient             ...        0 min,  0.028 sec ( 35.517%)
 printout                       ...        0 min,  0.000 sec (  0.331%)

         :::::::::::::::::::::::::::::::::::::::::::::::::::::
         ::                     SUMMARY                     ::
         :::::::::::::::::::::::::::::::::::::::::::::::::::::
         :: total energy             -80.936634205684 Eh    ::
         :: gradient norm              0.000048289274 Eh/a0 ::
         :: HOMO-LUMO gap              5.899062414591 eV    ::
         ::.................................................::
         :: SCC energy               -81.849069501508 Eh    ::
         :: -> isotropic ES            0.294391453944 Eh    ::
         :: -> anisotropic ES         -0.028236741262 Eh    ::
         :: -> anisotropic XC          0.020245129321 Eh    ::
         :: -> dispersion             -0.045782479342 Eh    ::
         :: repulsion energy           0.910651214978 Eh    ::
         :: add. restraining           0.000000000000 Eh    ::
         :: total charge               1.000000000000 e     ::
         :::::::::::::::::::::::::::::::::::::::::::::::::::::

           ------------------------------------------------- 
          |                Numerical Hessian                |
           ------------------------------------------------- 
step length          :   0.00500
SCC accuracy         :   0.30000
Hessian scale factor :   1.00000
frozen atoms in %    :   0.00000    0
RMS gradient         :   0.00005
estimated CPU  time      0.24 min
estimated wall time      0.24 min

writing file <hessian>.

 projected vibrational frequencies (cm⁻¹)
eigval :       -0.00    -0.00     0.00     0.00     0.00     0.00
eigval :       16.34    20.37    26.40    28.14    29.73    37.10
eigval :       41.17    43.37    57.98    59.15    60.86    74.36
eigval :       75.63    81.02    86.10    93.24   101.13   111.36
eigval :      121.21   125.50   140.87   158.56   172.42   182.74
eigval :      194.45   199.32   207.14   255.13   290.28   300.24
eigval :      302.29   316.50   337.02   338.93   343.38   375.44
eigval :      381.79   422.62   435.58   439.67   448.45   458.36
eigval :      462.26   465.12   469.91   474.10   475.18   479.44
eigval :      484.50   486.75   502.71   542.58   546.10   558.17
eigval :      565.28   579.49   639.80   659.91   669.90   676.08
eigval :      677.05   716.09   722.09   763.57   765.35   778.34
eigval :      916.32   924.82   960.61   968.44   969.11   980.98
eigval :      997.99  1011.17  1012.04  1014.97  1019.65  1023.84
eigval :     1028.15  1032.20  1037.15  1085.87  1089.54  1091.90
eigval :     1092.52  1093.07  1103.42  1128.42  1162.86  1224.37
eigval :     1247.83  1270.17  1315.44  1322.43  1351.88  1358.78
eigval :     1363.79  1369.80  1372.42  1391.43  1401.98  1414.15
eigval :     1418.77  1438.66  1439.66  1446.26  1452.83  1454.98
eigval :     1460.10  1461.63  1462.26  1464.59  1470.94  1482.46
eigval :     1487.25  1502.59  1506.96  1516.08  1517.57  1653.59
eigval :     1689.34  1702.92  1711.92  2909.39  2973.46  2987.44
eigval :     3006.20  3029.04  3034.90  3039.54  3039.90  3043.41
eigval :     3046.03  3051.81  3056.98  3063.25  3106.76  3183.09
eigval :     3232.21  3286.66  3322.82  3487.52  3494.99  3496.57
eigval :     3505.81  3521.76  3529.22  3535.56  3539.69  3552.67
eigval :     3558.42  3561.44  3572.62
           -------------------------------------------------
          |                Property Printout                |
           -------------------------------------------------

    * Orbital Energies and Occupations

         #    Occupation            Energy/Eh            Energy/eV
      -------------------------------------------------------------
         1        2.0000           -0.8023812             -21.8339
       ...           ...                  ...                  ...
        58        2.0000           -0.5085597             -13.8386
        59        2.0000           -0.5028457             -13.6831
        60        2.0000           -0.5022552             -13.6671
        61        2.0000           -0.5016981             -13.6519
        62        2.0000           -0.5003814             -13.6161
        63        2.0000           -0.4975799             -13.5398
        64        2.0000           -0.4954363             -13.4815
        65        2.0000           -0.4945449             -13.4573
        66        2.0000           -0.4938118             -13.4373
        67        2.0000           -0.4934255             -13.4268
        68        2.0000           -0.4914762             -13.3737
        69        2.0000           -0.4894877             -13.3196
        70        2.0000           -0.4866491             -13.2424 (HOMO)
        71                         -0.2698618              -7.3433 (LUMO)
        72                         -0.2662825              -7.2459
        73                         -0.2639742              -7.1831
        74                         -0.2621837              -7.1344
        75                         -0.1563280              -4.2539
        76                         -0.1076615              -2.9296
        77                         -0.0902227              -2.4551
        78                         -0.0863521              -2.3498
        79                         -0.0826134              -2.2480
        80                         -0.0766888              -2.0868
        81                         -0.0718049              -1.9539
       ...                                ...                  ...
       122                          0.5644107              15.3584
      -------------------------------------------------------------
                  HL-Gap            0.2167873 Eh            5.8991 eV
             Fermi-level           -0.3782555 Eh          -10.2929 eV

     #   Z          covCN         q      C6AA      α(0)
     1   8 O        1.654    -0.464    22.125     6.350
     2   6 C        3.674     0.070    19.627     6.349
     3   1 H        0.924     0.051     2.311     2.378
     4   1 H        0.923     0.057     2.229     2.335
     5   6 C        3.770    -0.075    21.960     6.678
     6   1 H        0.924     0.107     1.725     2.054
     7   1 H        0.924     0.119     1.623     1.992
     8   7 N        3.623     0.156    18.613     6.408
     9   6 C        3.737    -0.109    22.670     6.794
    10   1 H        0.925     0.126     1.565     1.956
    11   1 H        0.925     0.085     1.926     2.170
    12   1 H        0.925     0.091     1.873     2.140
    13   6 C        3.725    -0.106    22.640     6.794
    14   1 H        0.925     0.091     1.868     2.137
    15   1 H        0.925     0.084     1.936     2.176
    16   1 H        0.925     0.124     1.583     1.967
    17   6 C        3.719    -0.107    22.666     6.800
    18   1 H        0.925     0.112     1.679     2.026
    19   1 H        0.925     0.118     1.629     1.996
    20   1 H        0.925     0.076     2.017     2.221
    21   1 H        0.803     0.328     0.642     1.259
    22   6 C        2.675     0.342    21.182     7.531
    23   8 O        0.860    -0.539    24.657     6.658
    24   7 N        2.643    -0.319    28.203     7.887
    25   1 H        0.859     0.239     0.927     1.508
    26   1 H        0.860     0.176     1.239     1.744
    27   7 N        2.645    -0.295    27.608     7.804
    28   1 H        0.861     0.182     1.202     1.718
    29   1 H        0.860     0.196     1.128     1.664
    30   6 C        2.675     0.345    21.141     7.524
    31   8 O        0.861    -0.523    24.302     6.609
    32   7 N        2.645    -0.285    27.357     7.768
    33   1 H        0.861     0.202     1.098     1.642
    34   1 H        0.861     0.186     1.182     1.703
    35   7 N        2.644    -0.303    27.807     7.832
    36   1 H        0.861     0.180     1.214     1.726
    37   1 H        0.860     0.243     0.909     1.494
    38   6 C        2.675     0.341    21.206     7.536
    39   8 O        0.860    -0.539    24.668     6.659
    40   7 N        2.645    -0.295    27.606     7.803
    41   1 H        0.860     0.194     1.136     1.669
    42   1 H        0.860     0.183     1.197     1.714
    43   7 N        2.644    -0.302    27.774     7.827
    44   1 H        0.860     0.180     1.216     1.728
    45   1 H        0.860     0.245     0.903     1.488
    46   6 C        2.675     0.339    21.233     7.540
    47   8 O        0.860    -0.525    24.349     6.616
    48   7 N        2.644    -0.303    27.801     7.831
    49   1 H        0.859     0.254     0.870     1.461
    50   1 H        0.861     0.179     1.221     1.731
    51   7 N        2.644    -0.298    27.683     7.814
    52   1 H        0.860     0.182     1.202     1.718
    53   1 H        0.860     0.203     1.090     1.635

 Mol. C6AA /au·bohr⁶  :      21794.826893
 Mol. C8AA /au·bohr⁸  :     454339.741367
 Mol. α(0) /au        :        220.561723


Wiberg/Mayer (AO) data.
largest (>0.10) Wiberg bond orders for each atom

 ---------------------------------------------------------------------------
     #   Z sym  total        # sym  WBO       # sym  WBO       # sym  WBO
 ---------------------------------------------------------------------------
     1   8 O    1.950 --     2 C    1.019    21 H    0.839
     2   6 C    3.965 --     1 O    1.019     5 C    0.998     3 H    0.966
                             4 H    0.953
     3   1 H    0.997 --     2 C    0.966
     4   1 H    0.996 --     2 C    0.953
     5   6 C    3.919 --     2 C    0.998     6 H    0.955     7 H    0.946
                             8 N    0.925
     6   1 H    0.989 --     5 C    0.955
     7   1 H    0.986 --     5 C    0.946
     8   7 N    3.821 --    13 C    0.960     9 C    0.959    17 C    0.958
                             5 C    0.925
     9   6 C    3.928 --    11 H    0.977    12 H    0.977    10 H    0.963
                             8 N    0.959
    10   1 H    0.984 --     9 C    0.963
    11   1 H    0.992 --     9 C    0.977
    12   1 H    0.992 --     9 C    0.977
    13   6 C    3.928 --    15 H    0.978    14 H    0.973    16 H    0.961
                             8 N    0.960
    14   1 H    0.992 --    13 C    0.973
    15   1 H    0.993 --    13 C    0.978
    16   1 H    0.985 --    13 C    0.961
    17   6 C    3.923 --    20 H    0.979    18 H    0.969    19 H    0.964
                             8 N    0.958
    18   1 H    0.987 --    17 C    0.969
    19   1 H    0.986 --    17 C    0.964
    20   1 H    0.994 --    17 C    0.979
    21   1 H    0.892 --     1 O    0.839
    22   6 C    3.959 --    23 O    1.517    24 N    1.235    27 N    1.198
    23   8 O    1.880 --    22 C    1.517    24 N    0.145    27 N    0.137
    24   7 N    3.320 --    22 C    1.235    26 H    0.949    25 H    0.870
                            23 O    0.145
    25   1 H    0.943 --    24 N    0.870
    26   1 H    0.969 --    24 N    0.949
    27   7 N    3.313 --    22 C    1.198    28 H    0.948    29 H    0.945
                            23 O    0.137
    28   1 H    0.967 --    27 N    0.948
    29   1 H    0.961 --    27 N    0.945
    30   6 C    3.959 --    31 O    1.472    35 N    1.260    32 N    1.216
    31   8 O    1.932 --    30 C    1.472    35 N    0.141    32 N    0.130
    32   7 N    3.331 --    30 C    1.216    34 H    0.947    33 H    0.942
                            31 O    0.130
    33   1 H    0.959 --    32 N    0.942
    34   1 H    0.965 --    32 N    0.947
    35   7 N    3.349 --    30 C    1.260    36 H    0.948    37 H    0.871
                            31 O    0.141
    36   1 H    0.967 --    35 N    0.948
    37   1 H    0.941 --    35 N    0.871
    38   6 C    3.959 --    39 O    1.500    43 N    1.255    40 N    1.195
    39   8 O    1.882 --    38 C    1.500    43 N    0.146    40 N    0.131
    40   7 N    3.308 --    38 C    1.195    42 H    0.947    41 H    0.945
                            39 O    0.131
    41   1 H    0.962 --    40 N    0.945
    42   1 H    0.966 --    40 N    0.947
    43   7 N    3.344 --    38 C    1.255    44 H    0.948    45 H    0.882
                            39 O    0.146
    44   1 H    0.968 --    43 N    0.948
    45   1 H    0.940 --    43 N    0.882
    46   6 C    3.960 --    47 O    1.473    48 N    1.281    51 N    1.198
    47   8 O    1.936 --    46 C    1.473    48 N    0.145    51 N    0.125
    48   7 N    3.358 --    46 C    1.281    50 H    0.948    49 H    0.850
                            47 O    0.145
    49   1 H    0.936 --    48 N    0.850
    50   1 H    0.968 --    48 N    0.948
    51   7 N    3.307 --    46 C    1.198    52 H    0.948    53 H    0.938
                            47 O    0.125
    52   1 H    0.966 --    51 N    0.948
    53   1 H    0.958 --    51 N    0.938
 ---------------------------------------------------------------------------

Topologies differ in total number of bonds
Writing topology from bond orders to xtbtopo.mol

molecular dipole:
                 x           y           z       tot (Debye)
 q only:        0.599      -1.299      -0.043
   full:        0.561      -0.901       0.368       2.856
molecular quadrupole (traceless):
                xx          xy          yy          xz          yz          zz
 q only:       23.119      -2.277       3.998      -6.579      -3.634     -27.118
  q+dip:       30.826       0.384       2.349      -7.919      -6.712     -33.176
   full:       30.578       0.607       2.043      -7.552      -6.443     -32.621

           -------------------------------------------------
          |               Frequency Printout                |
           -------------------------------------------------
 projected vibrational frequencies (cm⁻¹)
eigval :       -0.00    -0.00     0.00     0.00     0.00     0.00
eigval :       16.34    20.37    26.40    28.14    29.73    37.10
eigval :       41.17    43.37    57.98    59.15    60.86    74.36
eigval :       75.63    81.02    86.10    93.24   101.13   111.36
eigval :      121.21   125.50   140.87   158.56   172.42   182.74
eigval :      194.45   199.32   207.14   255.13   290.28   300.24
eigval :      302.29   316.50   337.02   338.93   343.38   375.44
eigval :      381.79   422.62   435.58   439.67   448.45   458.36
eigval :      462.26   465.12   469.91   474.10   475.18   479.44
eigval :      484.50   486.75   502.71   542.58   546.10   558.17
eigval :      565.28   579.49   639.80   659.91   669.90   676.08
eigval :      677.05   716.09   722.09   763.57   765.35   778.34
eigval :      916.32   924.82   960.61   968.44   969.11   980.98
eigval :      997.99  1011.17  1012.04  1014.97  1019.65  1023.84
eigval :     1028.15  1032.20  1037.15  1085.87  1089.54  1091.90
eigval :     1092.52  1093.07  1103.42  1128.42  1162.86  1224.37
eigval :     1247.83  1270.17  1315.44  1322.43  1351.88  1358.78
eigval :     1363.79  1369.80  1372.42  1391.43  1401.98  1414.15
eigval :     1418.77  1438.66  1439.66  1446.26  1452.83  1454.98
eigval :     1460.10  1461.63  1462.26  1464.59  1470.94  1482.46
eigval :     1487.25  1502.59  1506.96  1516.08  1517.57  1653.59
eigval :     1689.34  1702.92  1711.92  2909.39  2973.46  2987.44
eigval :     3006.20  3029.04  3034.90  3039.54  3039.90  3043.41
eigval :     3046.03  3051.81  3056.98  3063.25  3106.76  3183.09
eigval :     3232.21  3286.66  3322.82  3487.52  3494.99  3496.57
eigval :     3505.81  3521.76  3529.22  3535.56  3539.69  3552.67
eigval :     3558.42  3561.44  3572.62
 reduced masses (amu)
   1: 12.53   2: 12.49   3: 12.66   4: 12.22   5: 12.50   6: 12.56   7: 12.33   8: 11.73
   9: 12.60  10: 11.12  11: 12.40  12: 12.22  13: 12.15  14: 12.39  15: 12.52  16: 12.85
  17: 12.80  18: 13.47  19: 12.77  20: 12.64  21: 12.40  22: 13.57  23: 11.92  24: 12.35
  25: 12.31  26: 12.04  27: 12.35  28: 12.94  29: 12.65  30:  4.10  31: 12.53  32:  9.57
  33: 12.48  34:  3.79  35:  7.43  36:  2.98  37:  3.33  38:  6.43  39:  2.78  40:  2.75
  41:  2.64  42:  7.74  43:  3.50  44:  3.45  45:  8.05  46:  3.80  47:  2.81  48:  8.26
  49:  3.41  50:  5.23  51:  6.47  52:  3.24  53:  3.62  54:  5.74  55:  7.74  56:  6.72
  57:  8.97  58: 11.24  59: 11.30  60: 11.58  61:  8.15  62: 12.01  63:  2.50  64:  9.79
  65: 11.31  66: 12.03  67: 12.03  68:  3.28  69:  1.92  70:  8.24  71:  2.88  72:  2.06
  73:  6.83  74:  8.49  75:  5.00  76:  4.97  77:  4.79  78:  4.52  79:  7.38  80:  8.98
  81:  9.19  82:  8.13  83:  9.03  84:  5.64  85:  9.63  86:  5.52  87:  4.56  88:  9.13
  89:  8.56  90:  8.00  91:  7.06  92:  8.26  93:  4.03  94:  8.76  95:  2.87  96:  5.60
  97:  7.42  98:  8.21  99:  4.25 100:  4.87 101:  5.10 102:  4.33 103:  5.13 104:  5.07
 105:  4.54 106:  4.57 107:  2.55 108:  2.52 109:  2.12 110:  2.42 111:  1.68 112:  3.26
 113:  2.45 114:  2.37 115:  2.72 116:  1.78 117:  3.06 118:  1.93 119:  1.66 120:  1.60
 121:  1.82 122:  8.13 123:  8.36 124:  9.19 125:  9.65 126: 12.36 127: 12.68 128: 12.68
 129: 12.71 130:  1.78 131:  1.63 132:  1.71 133:  1.82 134:  1.69 135:  1.72 136:  1.68
 137:  1.88 138:  1.55 139:  1.87 140:  1.83 141:  1.68 142:  1.70 143:  1.84 144:  1.80
 145:  1.79 146:  1.88 147:  1.75 148:  1.46 149:  1.46 150:  1.45 151:  1.45 152:  1.89
 153:  1.93 154:  1.89 155:  1.90 156:  2.17 157:  2.17 158:  2.18 159:  2.19
 IR intensities (km·mol⁻¹)
   1:  1.23   2:  1.21   3:  1.66   4:  1.14   5:  1.88   6:  1.68   7:  0.25   8:  0.32
   9:  3.01  10:  0.46  11:  3.35  12:  3.33  13:  1.58  14:  0.76  15:  7.33  16:  2.48
  17:  5.87  18:  2.07  19: 10.36  20:  3.72  21:  4.12  22:  8.47  23:  4.46  24: 13.05
  25:  9.48  26: 22.78  27:  6.19  28: 17.63  29:  5.47  30:138.22  31: 24.11  32:  2.01
  33: 64.75  34:  0.79  35:  0.54  36:167.78  37: 19.02  38:  2.76  39:  2.78  40: 90.00
  41:145.92  42:  1.92  43:126.22  44:348.50  45: 19.46  46:185.42  47:204.04  48:  5.25
  49: 18.53  50: 66.22  51: 18.78  52: 44.89  53:  7.40  54:  3.86  55: 20.03  56: 36.00
  57: 57.63  58: 22.43  59: 18.83  60:  6.75  61:  9.82  62: 70.13  63:154.47  64: 11.25
  65: 26.35  66: 23.61  67: 55.57  68:110.37  69: 90.15  70:  8.67  71: 65.31  72:549.41
  73:  7.83  74:  8.64  75:  6.18  76:  0.40  77:  0.14  78:  3.98  79: 14.30  80: 25.94
  81: 15.67  82: 13.70  83:  7.45  84: 20.53  85:  4.18  86: 14.00  87: 11.00  88:  1.39
  89:  0.52  90:  5.76  91: 11.76  92:  1.61  93: 24.71  94: 33.05  95:  4.94  96:  5.02
  97:  2.06  98:  1.85  99:  5.10 100:  9.86 101:170.31 102:143.45 103: 77.94 104: 84.67
 105: 88.07 106: 13.57 107: 23.17 108:  8.89 109:  6.99 110: 17.74 111:  0.82 112: 11.19
 113:  2.07 114:  1.99 115:  6.52 116:  3.36 117:  8.23 118: 10.76 119:  4.27 120: 66.42
 121: 11.01 122:628.99 123:471.57 124:899.09 125: 89.76 126:114.41 127:464.18 128:******
 129:****** 130: 11.03 131: 35.14 132: 31.06 133:  2.08 134: 20.68 135: 13.42 136:  9.73
 137:  7.80 138: 19.21 139: 13.38 140:  4.94 141:  0.83 142:  4.00 143:717.86 144:******
 145:717.01 146:235.48 147:****** 148: 28.61 149: 14.48 150: 16.50 151: 20.33 152: 11.51
 153: 17.21 154: 13.30 155: 15.61 156: 21.52 157:  9.10 158: 10.23 159: 17.08
 Raman intensities (amu)
Molecule has no symmetry elements
It seems to be the C1 point group
   1:  0.00   2:  0.00   3:  0.00   4:  0.00   5:  0.00   6:  0.00   7:  0.00   8:  0.00
   9:  0.00  10:  0.00  11:  0.00  12:  0.00  13:  0.00  14:  0.00  15:  0.00  16:  0.00
  17:  0.00  18:  0.00  19:  0.00  20:  0.00  21:  0.00  22:  0.00  23:  0.00  24:  0.00
  25:  0.00  26:  0.00  27:  0.00  28:  0.00  29:  0.00  30:  0.00  31:  0.00  32:  0.00
  33:  0.00  34:  0.00  35:  0.00  36:  0.00  37:  0.00  38:  0.00  39:  0.00  40:  0.00
  41:  0.00  42:  0.00  43:  0.00  44:  0.00  45:  0.00  46:  0.00  47:  0.00  48:  0.00
  49:  0.00  50:  0.00  51:  0.00  52:  0.00  53:  0.00  54:  0.00  55:  0.00  56:  0.00
  57:  0.00  58:  0.00  59:  0.00  60:  0.00  61:  0.00  62:  0.00  63:  0.00  64:  0.00
  65:  0.00  66:  0.00  67:  0.00  68:  0.00  69:  0.00  70:  0.00  71:  0.00  72:  0.00
  73:  0.00  74:  0.00  75:  0.00  76:  0.00  77:  0.00  78:  0.00  79:  0.00  80:  0.00
  81:  0.00  82:  0.00  83:  0.00  84:  0.00  85:  0.00  86:  0.00  87:  0.00  88:  0.00
  89:  0.00  90:  0.00  91:  0.00  92:  0.00  93:  0.00  94:  0.00  95:  0.00  96:  0.00
  97:  0.00  98:  0.00  99:  0.00 100:  0.00 101:  0.00 102:  0.00 103:  0.00 104:  0.00
 105:  0.00 106:  0.00 107:  0.00 108:  0.00 109:  0.00 110:  0.00 111:  0.00 112:  0.00
 113:  0.00 114:  0.00 115:  0.00 116:  0.00 117:  0.00 118:  0.00 119:  0.00 120:  0.00
 121:  0.00 122:  0.00 123:  0.00 124:  0.00 125:  0.00 126:  0.00 127:  0.00 128:  0.00
 129:  0.00 130:  0.00 131:  0.00 132:  0.00 133:  0.00 134:  0.00 135:  0.00 136:  0.00
 137:  0.00 138:  0.00 139:  0.00 140:  0.00 141:  0.00 142:  0.00 143:  0.00 144:  0.00
 145:  0.00 146:  0.00 147:  0.00 148:  0.00 149:  0.00 150:  0.00 151:  0.00 152:  0.00
 153:  0.00 154:  0.00 155:  0.00 156:  0.00 157:  0.00 158:  0.00 159:  0.00
 output can be read by thermo (or use thermo option).
 writing <g98.out> molden fake output.
 recommended (thermochemical) frequency scaling factor: 1.0
           -------------------------------------------------
          |             Thermodynamic Functions             |
           -------------------------------------------------

c1  symmetry found (for desy threshold:  0.10E+00) used in thermo

          ...................................................
          :                      SETUP                      :
          :.................................................:
          :  # frequencies                         153      :
          :  # imaginary freq.                       0      :
          :  linear?                             false      :
          :  only rotor calc.                    false      :
          :  symmetry                               c1      :
          :  rotational number                       1      :
          :  scaling factor                  1.0000000      :
          :  rotor cutoff                   50.0000000 cm⁻¹ :
          :  imag. cutoff                  -20.0000000 cm⁻¹ :
          :.................................................:

    mode    ω/cm⁻¹     T·S(HO)/kcal·mol⁻¹    T·S(FR)/kcal·mol⁻¹   T·S(vib)
   ------------------------------------------------------------------------
       1     16.34    -2.09775 (  1.13%)    -1.38781 ( 98.87%)    -1.39582
       2     20.37    -1.96712 (  2.68%)    -1.32247 ( 97.32%)    -1.33976
       3     26.40    -1.81376 (  7.21%)    -1.24573 ( 92.79%)    -1.28667
       4     28.14    -1.77595 (  9.12%)    -1.22680 ( 90.88%)    -1.27686
       5     29.73    -1.74329 ( 11.12%)    -1.21045 ( 88.88%)    -1.26969
       6     37.10    -1.61244 ( 23.26%)    -1.14490 ( 76.74%)    -1.25366
       7     41.17    -1.55096 ( 31.49%)    -1.11407 ( 68.51%)    -1.25166
       8     43.37    -1.52018 ( 36.15%)    -1.09863 ( 63.85%)    -1.25104
       9     57.98    -1.34908 ( 64.39%)    -1.01266 ( 35.61%)    -1.22927
      10     59.15    -1.33729 ( 66.20%)    -1.00673 ( 33.80%)    -1.22557
      11     60.86    -1.32055 ( 68.70%)    -0.99830 ( 31.30%)    -1.21968
      12     74.36    -1.20286 ( 83.03%)    -0.93894 ( 16.97%)    -1.15807
      13     75.63    -1.19297 ( 83.96%)    -0.93394 ( 16.04%)    -1.15142
      14     81.02    -1.15264 ( 87.33%)    -0.91354 ( 12.67%)    -1.12236
      15     86.10    -1.11707 ( 89.79%)    -0.89551 ( 10.21%)    -1.09445
      16     93.24    -1.07063 ( 92.36%)    -0.87193 (  7.64%)    -1.05546
      17    101.13    -1.02337 ( 94.36%)    -0.84786 (  5.64%)    -1.01347
      18    111.36    -0.96750 ( 96.10%)    -0.81931 (  3.90%)    -0.96171
      19    121.21    -0.91861 ( 97.19%)    -0.79422 (  2.81%)    -0.91511
      20    125.50    -0.89859 ( 97.54%)    -0.78391 (  2.46%)    -0.89577
      21    140.87    -0.83244 ( 98.44%)    -0.74969 (  1.56%)    -0.83115
      22    158.56    -0.76532 ( 99.02%)    -0.71464 (  0.98%)    -0.76483
      23    172.42    -0.71823 ( 99.30%)    -0.68982 (  0.70%)    -0.71803
      24    182.74    -0.68580 ( 99.44%)    -0.67259 (  0.56%)    -0.68573
      25    194.45    -0.65145 ( 99.56%)    -0.65420 (  0.44%)    -0.65146
      26    199.32    -0.63785 ( 99.61%)    -0.64687 (  0.39%)    -0.63789
      27    207.14    -0.61680 ( 99.66%)    -0.63548 (  0.34%)    -0.61687
      28    255.13    -0.50531 ( 99.85%)    -0.57374 (  0.15%)    -0.50541
      29    290.28    -0.43898 ( 99.91%)    -0.53551 (  0.09%)    -0.43906
   ------------------------------------------------------------------------

   temp. (K)  partition function   enthalpy   heat capacity  entropy
                                   cal/mol     cal/K/mol   cal/K/mol   J/K/mol
 298.15  VIB  0.433E+17            19324.805    103.852    126.631
         ROT  0.115E+08              888.752      2.981     35.290
         INT  0.498E+24            20213.557    106.833    161.921
         TR   0.618E+28             1481.254      4.968     43.384
         TOT                       21694.8110   111.8012   205.3054   858.9980

       T/K    H(0)-H(T)+PV         H(T)/Eh          T*S/Eh         G(T)/Eh
   ------------------------------------------------------------------------
    298.15    0.345729E-01    0.473829E+00    0.975472E-01    0.376282E+00
   ------------------------------------------------------------------------

         :::::::::::::::::::::::::::::::::::::::::::::::::::::
         ::                  THERMODYNAMIC                  ::
         :::::::::::::::::::::::::::::::::::::::::::::::::::::
         :: total free energy         -80.560352487227 Eh   ::
         ::.................................................::
         :: total energy              -80.936634206121 Eh   ::
         :: zero point energy           0.439256077970 Eh   ::
         :: G(RRHO) w/o ZPVE           -0.062974359076 Eh   ::
         :: G(RRHO) contrib.            0.376281718893 Eh   ::
         :::::::::::::::::::::::::::::::::::::::::::::::::::::

           -------------------------------------------------
          | TOTAL ENERGY              -80.936634206121 Eh   |
          | TOTAL ENTHALPY            -80.462805246133 Eh   |
          | TOTAL FREE ENERGY         -80.560352487227 Eh   |
          | GRADIENT NORM               0.000048096749 Eh/α |
          | HOMO-LUMO GAP               5.899083797652 eV   |
           -------------------------------------------------

------------------------------------------------------------------------
 * finished run on 2024/01/10 at 15:34:43.648     
------------------------------------------------------------------------
 total:
 * wall-time:     0 d,  0 h,  0 min, 14.800 sec
 *  cpu-time:     0 d,  0 h,  0 min, 14.753 sec
 * ratio c/w:     0.997 speedup
 SCF:
 * wall-time:     0 d,  0 h,  0 min,  0.080 sec
 *  cpu-time:     0 d,  0 h,  0 min,  0.058 sec
 * ratio c/w:     0.727 speedup
 analytical hessian:
 * wall-time:     0 d,  0 h,  0 min, 14.693 sec
 *  cpu-time:     0 d,  0 h,  0 min, 14.668 sec
 * ratio c/w:     0.998 speedup

