      -----------------------------------------------------------      
     |                   =====================                   |     
     |                           x T B                           |     
     |                   =====================                   |     
     |                         S. Grimme                         |     
     |          Mulliken Center for Theoretical Chemistry        |     
     |                    University of Bonn                     |     
      -----------------------------------------------------------      

   * xtb version 6.6.1 (unknown-commit) compiled by '@Linux' on 12/27/2023

   xtb is free software: you can redistribute it and/or modify it under
   the terms of the GNU Lesser General Public License as published by
   the Free Software Foundation, either version 3 of the License, or
   (at your option) any later version.
   
   xtb is distributed in the hope that it will be useful,
   but WITHOUT ANY WARRANTY; without even the implied warranty of
   MERCHANTABILITY or FITNESS FOR A PARTICULAR PURPOSE.  See the
   GNU Lesser General Public License for more details.
   
   Cite this work as:
   * C. Bannwarth, E. Caldeweyher, S. Ehlert, A. Hansen, P. Pracht,
     J. Seibert, S. Spicher, S. Grimme, WIREs Comput. Mol. Sci., 2020, 11,
     e01493. DOI: 10.1002/wcms.1493
   
   for GFN2-xTB:
   * C. Bannwarth, S. Ehlert and S. Grimme., J. Chem. Theory Comput., 2019,
     15, 1652-1671. DOI: 10.1021/acs.jctc.8b01176
   for GFN1-xTB:
   * S. Grimme, C. Bannwarth, P. Shushkov, J. Chem. Theory Comput., 2017,
     13, 1989-2009. DOI: 10.1021/acs.jctc.7b00118
   for GFN0-xTB:
   * P. Pracht, E. Caldeweyher, S. Ehlert, S. Grimme, ChemRxiv, 2019, preprint.
     DOI: 10.26434/chemrxiv.8326202.v1
   for GFN-FF:
   * S. Spicher and S. Grimme, Angew. Chem. Int. Ed., 2020, 59, 15665-15673.
     DOI: 10.1002/anie.202004239
   
   for ALPB and GBSA implicit solvation:
   * S. Ehlert, M. Stahn, S. Spicher, S. Grimme, J. Chem. Theory Comput.,
     2021, 17, 4250-4261. DOI: 10.1021/acs.jctc.1c00471
   
   for DFT-D4:
   * E. Caldeweyher, C. Bannwarth and S. Grimme, J. Chem. Phys., 2017,
     147, 034112. DOI: 10.1063/1.4993215
   * E. Caldeweyher, S. Ehlert, A. Hansen, H. Neugebauer, S. Spicher,
     C. Bannwarth and S. Grimme, J. Chem. Phys., 2019, 150, 154122.
     DOI: 10.1063/1.5090222
   * E. Caldeweyher, J.-M. Mewes, S. Ehlert and S. Grimme, Phys. Chem. Chem. Phys.
     2020, 22, 8499-8512. DOI: 10.1039/D0CP00502A
   
   for sTDA-xTB:
   * S. Grimme and C. Bannwarth, J. Chem. Phys., 2016, 145, 054103.
     DOI: 10.1063/1.4959605
   
   in the mass-spec context:
   * V. Asgeirsson, C. Bauer and S. Grimme, Chem. Sci., 2017, 8, 4879.
     DOI: 10.1039/c7sc00601b
   * J. Koopman and S. Grimme, ACS Omega 2019, 4, 12, 15120-15133.
     DOI: 10.1021/acsomega.9b02011
   
   for metadynamics refer to:
   * S. Grimme, J. Chem. Theory Comput., 2019, 155, 2847-2862
     DOI: 10.1021/acs.jctc.9b00143
   
   for SPH calculations refer to:
   * S. Spicher and S. Grimme, J. Chem. Theory Comput., 2021, 17, 1701-1714
     DOI: 10.1021/acs.jctc.0c01306
   
   with help from (in alphabetical order)
   P. Atkinson, C. Bannwarth, F. Bohle, G. Brandenburg, E. Caldeweyher
   M. Checinski, S. Dohm, S. Ehlert, S. Ehrlich, I. Gerasimov, C. Hölzer
   A. Katbashev, J. Koopman, C. Lavigne, S. Lehtola, F. März, M. Müller,
   F. Musil, H. Neugebauer, J. Pisarek, C. Plett, P. Pracht, F. Pultar,
   J. Seibert, P. Shushkov, S. Spicher, M. Stahn, M. Steiner, T. Strunk,
   J. Stückrath, T. Rose, and J. Unsleber
   
 * started run on 2024/01/10 at 15:35:42.674     

           -------------------------------------------------
          |                Calculation Setup                |
           -------------------------------------------------

          program call               : xtb struc.xyz --gfn2 --hess
          hostname                   : swaroop
          coordinate file            : struc.xyz
          omp threads                :                     1

   ID    Z sym.   atoms
    1    8 O      1, 23, 31, 39, 47
    2    6 C      2, 5, 9, 13, 17, 22, 30, 38, 46
    3    1 H      3, 4, 6, 7, 10-12, 14-16, 18-21, 25, 26, 28, 29, 33, 34,
                  36, 37, 41, 42, 44, 45, 49, 50, 52, 53
    4    7 N      8, 24, 27, 32, 35, 40, 43, 48, 51

molecular fragmentation (1/2 indicates fragments):
11111111111111111111122222222222222222222222222222222
# atoms in fragment 1/2:    21    32
 fragment masses (1/2) :      104.17      240.22
CMA distance (Bohr)    :   8.487
constraining FC (au)   :  0.0500

           -------------------------------------------------
          |                 G F N 2 - x T B                 |
           -------------------------------------------------

        Reference                      10.1021/acs.jctc.8b01176
      * Hamiltonian:
        H0-scaling (s, p, d)           1.850000    2.230000    2.230000
        zeta-weighting                 0.500000
      * Dispersion:
        s8                             2.700000
        a1                             0.520000
        a2                             5.000000
        s9                             5.000000
      * Repulsion:
        kExp                           1.500000    1.000000
        rExp                           1.000000
      * Coulomb:
        alpha                          2.000000
        third order                    shell-resolved
        anisotropic                    true
        a3                             3.000000
        a5                             4.000000
        cn-shift                       1.200000
        cn-exp                         4.000000
        max-rad                        5.000000


          ...................................................
          :                      SETUP                      :
          :.................................................:
          :  # basis functions                 122          :
          :  # atomic orbitals                 122          :
          :  # shells                           76          :
          :  # electrons                       140          :
          :  max. iterations                   250          :
          :  Hamiltonian                  GFN2-xTB          :
          :  restarted?                      false          :
          :  GBSA solvation                  false          :
          :  PC potential                    false          :
          :  electronic temp.          300.0000000     K    :
          :  accuracy                    1.0000000          :
          :  -> integral cutoff          0.2500000E+02      :
          :  -> integral neglect         0.1000000E-07      :
          :  -> SCF convergence          0.1000000E-05 Eh   :
          :  -> wf. convergence          0.1000000E-03 e    :
          :  Broyden damping             0.4000000          :
          ...................................................

 iter      E             dE          RMSdq      gap      omega  full diag
   1    -81.5555922 -0.815556E+02  0.432E+00    5.06       0.0  T
   2    -81.8402911 -0.284699E+00  0.237E+00    5.81       1.0  T
   3    -81.8459451 -0.565399E-02  0.115E+00    5.48       1.0  T
   4    -81.8472643 -0.131927E-02  0.244E-01    5.51       1.0  T
   5    -81.8482045 -0.940152E-03  0.917E-02    5.42       1.0  T
   6    -81.8482293 -0.247757E-04  0.265E-02    5.42       1.0  T
   7    -81.8482337 -0.443570E-05  0.783E-03    5.42       1.8  T
   8    -81.8482340 -0.310463E-06  0.295E-03    5.41       4.7  T
   9    -81.8482340 -0.396343E-07  0.115E-03    5.41      11.9  T
  10    -81.8482341 -0.815190E-08  0.216E-04    5.41      63.7  T
  11    -81.8482341 -0.478039E-09  0.916E-05    5.41     150.0  T

   *** convergence criteria satisfied after 11 iterations ***

         #    Occupation            Energy/Eh            Energy/eV
      -------------------------------------------------------------
         1        2.0000           -0.8083785             -21.9971
       ...           ...                  ...                  ...
        64        2.0000           -0.4975278             -13.5384
        65        2.0000           -0.4971491             -13.5281
        66        2.0000           -0.4954178             -13.4810
        67        2.0000           -0.4936862             -13.4339
        68        2.0000           -0.4898066             -13.3283
        69        2.0000           -0.4884189             -13.2906
        70        2.0000           -0.4852113             -13.2033 (HOMO)
        71                         -0.2862478              -7.7892 (LUMO)
        72                         -0.2728065              -7.4234
        73                         -0.2656881              -7.2297
        74                         -0.2613860              -7.1127
        75                         -0.1565070              -4.2588
       ...                                ...                  ...
       122                          0.5566158              15.1463
      -------------------------------------------------------------
                  HL-Gap            0.1989635 Eh            5.4141 eV
             Fermi-level           -0.3857295 Eh          -10.4962 eV

 SCC (total)                   0 d,  0 h,  0 min,  0.087 sec
 SCC setup                      ...        0 min,  0.000 sec (  0.336%)
 Dispersion                     ...        0 min,  0.001 sec (  0.673%)
 classical contributions        ...        0 min,  0.000 sec (  0.207%)
 integral evaluation            ...        0 min,  0.008 sec (  9.130%)
 iterations                     ...        0 min,  0.050 sec ( 57.451%)
 molecular gradient             ...        0 min,  0.028 sec ( 31.898%)
 printout                       ...        0 min,  0.000 sec (  0.291%)

         :::::::::::::::::::::::::::::::::::::::::::::::::::::
         ::                     SUMMARY                     ::
         :::::::::::::::::::::::::::::::::::::::::::::::::::::
         :: total energy             -80.935253838313 Eh    ::
         :: gradient norm              0.000134549607 Eh/a0 ::
         :: HOMO-LUMO gap              5.414073087386 eV    ::
         ::.................................................::
         :: SCC energy               -81.848234057751 Eh    ::
         :: -> isotropic ES            0.296901373075 Eh    ::
         :: -> anisotropic ES         -0.028758266964 Eh    ::
         :: -> anisotropic XC          0.020789076991 Eh    ::
         :: -> dispersion             -0.046346338666 Eh    ::
         :: repulsion energy           0.911387386635 Eh    ::
         :: add. restraining           0.000000000000 Eh    ::
         :: total charge               1.000000000000 e     ::
         :::::::::::::::::::::::::::::::::::::::::::::::::::::

           ------------------------------------------------- 
          |                Numerical Hessian                |
           ------------------------------------------------- 
step length          :   0.00500
SCC accuracy         :   0.30000
Hessian scale factor :   1.00000
frozen atoms in %    :   0.00000    0
RMS gradient         :   0.00013
estimated CPU  time      0.24 min
estimated wall time      0.24 min

writing file <hessian>.

 projected vibrational frequencies (cm⁻¹)
eigval :       -0.00    -0.00     0.00     0.00     0.00     0.00
eigval :        8.04    12.84    19.61    25.64    35.98    38.04
eigval :       39.63    44.16    46.15    48.60    58.68    65.04
eigval :       69.62    84.21    86.87    93.50   101.07   105.17
eigval :      124.56   142.19   149.11   158.08   166.10   169.61
eigval :      184.79   206.21   219.84   242.88   256.53   282.00
eigval :      303.60   327.33   334.61   346.47   375.14   402.57
eigval :      427.66   437.35   453.94   455.73   459.04   463.02
eigval :      464.62   470.35   476.60   479.48   488.57   495.49
eigval :      498.37   505.72   523.97   533.15   545.74   547.15
eigval :      554.98   556.29   610.01   664.70   666.01   671.60
eigval :      677.96   685.50   702.63   716.05   763.98   806.85
eigval :      913.92   920.66   945.29   966.44   985.81   994.41
eigval :     1000.34  1003.34  1006.37  1012.20  1022.56  1024.13
eigval :     1029.92  1033.43  1038.38  1081.61  1087.88  1093.11
eigval :     1099.89  1104.85  1107.39  1124.91  1162.76  1222.79
eigval :     1243.87  1271.13  1315.01  1327.95  1344.65  1351.40
eigval :     1358.69  1363.08  1367.04  1383.48  1406.39  1413.83
eigval :     1427.90  1438.68  1439.85  1443.89  1449.70  1452.40
eigval :     1454.71  1459.52  1460.44  1465.15  1469.15  1483.16
eigval :     1487.72  1490.21  1508.07  1513.03  1521.36  1662.12
eigval :     1684.01  1697.50  1728.12  2896.36  2962.50  2984.09
eigval :     3014.02  3021.25  3032.87  3037.27  3039.96  3041.07
eigval :     3043.96  3046.62  3050.51  3057.01  3126.13  3268.72
eigval :     3294.80  3353.33  3395.32  3485.67  3497.80  3498.57
eigval :     3503.29  3522.52  3530.23  3534.26  3539.71  3553.05
eigval :     3562.04  3565.31  3567.60
           -------------------------------------------------
          |                Property Printout                |
           -------------------------------------------------

    * Orbital Energies and Occupations

         #    Occupation            Energy/Eh            Energy/eV
      -------------------------------------------------------------
         1        2.0000           -0.8083791             -21.9971
       ...           ...                  ...                  ...
        58        2.0000           -0.5257208             -14.3056
        59        2.0000           -0.5197847             -14.1441
        60        2.0000           -0.5195834             -14.1386
        61        2.0000           -0.5045603             -13.7298
        62        2.0000           -0.5028906             -13.6843
        63        2.0000           -0.5004400             -13.6177
        64        2.0000           -0.4975281             -13.5384
        65        2.0000           -0.4971484             -13.5281
        66        2.0000           -0.4954181             -13.4810
        67        2.0000           -0.4936869             -13.4339
        68        2.0000           -0.4898072             -13.3283
        69        2.0000           -0.4884195             -13.2906
        70        2.0000           -0.4852122             -13.2033 (HOMO)
        71                         -0.2862487              -7.7892 (LUMO)
        72                         -0.2728065              -7.4234
        73                         -0.2656884              -7.2297
        74                         -0.2613864              -7.1127
        75                         -0.1565068              -4.2588
        76                         -0.1186293              -3.2281
        77                         -0.0982748              -2.6742
        78                         -0.0897810              -2.4431
        79                         -0.0830280              -2.2593
        80                         -0.0774588              -2.1078
        81                         -0.0711115              -1.9350
       ...                                ...                  ...
       122                          0.5566153              15.1463
      -------------------------------------------------------------
                  HL-Gap            0.1989635 Eh            5.4141 eV
             Fermi-level           -0.3857304 Eh          -10.4963 eV

     #   Z          covCN         q      C6AA      α(0)
     1   8 O        1.654    -0.462    22.099     6.346
     2   6 C        3.673     0.073    19.589     6.343
     3   1 H        0.924     0.056     2.244     2.343
     4   1 H        0.923     0.045     2.382     2.414
     5   6 C        3.767    -0.079    22.050     6.692
     6   1 H        0.924     0.112     1.678     2.026
     7   1 H        0.924     0.116     1.649     2.008
     8   7 N        3.623     0.155    18.621     6.409
     9   6 C        3.721    -0.104    22.612     6.791
    10   1 H        0.925     0.101     1.772     2.082
    11   1 H        0.925     0.080     1.975     2.198
    12   1 H        0.925     0.116     1.646     2.006
    13   6 C        3.733    -0.120    22.889     6.828
    14   1 H        0.924     0.123     1.586     1.970
    15   1 H        0.925     0.118     1.626     1.994
    16   1 H        0.925     0.079     1.991     2.207
    17   6 C        3.723    -0.099    22.505     6.774
    18   1 H        0.925     0.095     1.834     2.118
    19   1 H        0.925     0.088     1.900     2.156
    20   1 H        0.925     0.106     1.734     2.059
    21   1 H        0.803     0.328     0.642     1.259
    22   6 C        2.675     0.346    21.130     7.522
    23   8 O        0.860    -0.525    24.353     6.616
    24   7 N        2.646    -0.283    27.318     7.763
    25   1 H        0.860     0.206     1.074     1.623
    26   1 H        0.861     0.192     1.146     1.677
    27   7 N        2.646    -0.282    27.292     7.759
    28   1 H        0.861     0.193     1.144     1.676
    29   1 H        0.860     0.207     1.073     1.622
    30   6 C        2.675     0.341    21.200     7.534
    31   8 O        0.861    -0.536    24.598     6.650
    32   7 N        2.644    -0.287    27.394     7.773
    33   1 H        0.860     0.205     1.082     1.629
    34   1 H        0.861     0.186     1.180     1.701
    35   7 N        2.643    -0.316    28.145     7.879
    36   1 H        0.860     0.177     1.232     1.738
    37   1 H        0.859     0.245     0.902     1.487
    38   6 C        2.675     0.342    21.185     7.532
    39   8 O        0.860    -0.522    24.279     6.606
    40   7 N        2.646    -0.311    28.003     7.859
    41   1 H        0.860     0.187     1.173     1.696
    42   1 H        0.860     0.219     1.014     1.578
    43   7 N        2.646    -0.300    27.718     7.819
    44   1 H        0.860     0.189     1.162     1.688
    45   1 H        0.860     0.195     1.131     1.666
    46   6 C        2.675     0.340    21.227     7.539
    47   8 O        0.860    -0.540    24.690     6.662
    48   7 N        2.645    -0.313    28.064     7.868
    49   1 H        0.860     0.232     0.958     1.533
    50   1 H        0.860     0.183     1.195     1.712
    51   7 N        2.645    -0.310    27.974     7.855
    52   1 H        0.860     0.220     1.011     1.575
    53   1 H        0.860     0.193     1.144     1.675

 Mol. C6AA /au·bohr⁶  :      21790.252145
 Mol. C8AA /au·bohr⁸  :     454282.655467
 Mol. α(0) /au        :        220.538899


Wiberg/Mayer (AO) data.
largest (>0.10) Wiberg bond orders for each atom

 ---------------------------------------------------------------------------
     #   Z sym  total        # sym  WBO       # sym  WBO       # sym  WBO
 ---------------------------------------------------------------------------
     1   8 O    1.957 --     2 C    1.020    21 H    0.836
     2   6 C    3.966 --     1 O    1.020     5 C    0.995     3 H    0.965
                             4 H    0.962
     3   1 H    0.997 --     2 C    0.965
     4   1 H    0.998 --     2 C    0.962
     5   6 C    3.919 --     2 C    0.995     6 H    0.952     7 H    0.941
                             8 N    0.928
     6   1 H    0.987 --     5 C    0.952
     7   1 H    0.987 --     5 C    0.941
     8   7 N    3.821 --    17 C    0.964     9 C    0.960    13 C    0.951
                             5 C    0.928
     9   6 C    3.928 --    11 H    0.978    10 H    0.972    12 H    0.965
                             8 N    0.960
    10   1 H    0.990 --     9 C    0.972
    11   1 H    0.993 --     9 C    0.978
    12   1 H    0.987 --     9 C    0.965
    13   6 C    3.913 --    16 H    0.978    15 H    0.961    14 H    0.955
                             8 N    0.951
    14   1 H    0.985 --    13 C    0.955
    15   1 H    0.986 --    13 C    0.961
    16   1 H    0.993 --    13 C    0.978
    17   6 C    3.935 --    19 H    0.977    20 H    0.974    18 H    0.973
                             8 N    0.964
    18   1 H    0.991 --    17 C    0.973
    19   1 H    0.992 --    17 C    0.977
    20   1 H    0.989 --    17 C    0.974
    21   1 H    0.892 --     1 O    0.836
    22   6 C    3.959 --    23 O    1.500    27 N    1.227    24 N    1.225
    23   8 O    1.913 --    22 C    1.500    27 N    0.139    24 N    0.139
    24   7 N    3.338 --    22 C    1.225    26 H    0.944    25 H    0.940
                            23 O    0.139
    25   1 H    0.957 --    24 N    0.940
    26   1 H    0.963 --    24 N    0.944
    27   7 N    3.340 --    22 C    1.227    28 H    0.944    29 H    0.940
                            23 O    0.139
    28   1 H    0.962 --    27 N    0.944
    29   1 H    0.957 --    27 N    0.940
    30   6 C    3.960 --    31 O    1.474    35 N    1.248    32 N    1.223
    31   8 O    1.893 --    30 C    1.474    35 N    0.136    32 N    0.132
    32   7 N    3.338 --    30 C    1.223    34 H    0.947    33 H    0.941
                            31 O    0.132
    33   1 H    0.958 --    32 N    0.941
    34   1 H    0.965 --    32 N    0.947
    35   7 N    3.327 --    30 C    1.248    36 H    0.948    37 H    0.859
                            31 O    0.136
    36   1 H    0.969 --    35 N    0.948
    37   1 H    0.940 --    35 N    0.859
    38   6 C    3.959 --    39 O    1.540    40 N    1.220    43 N    1.192
    39   8 O    1.904 --    38 C    1.540    40 N    0.146    43 N    0.137
    40   7 N    3.316 --    38 C    1.220    41 H    0.946    42 H    0.902
                            39 O    0.146
    41   1 H    0.965 --    40 N    0.946
    42   1 H    0.952 --    40 N    0.902
    43   7 N    3.301 --    38 C    1.192    45 H    0.944    44 H    0.944
                            39 O    0.137
    44   1 H    0.964 --    43 N    0.944
    45   1 H    0.962 --    43 N    0.944
    46   6 C    3.960 --    47 O    1.477    48 N    1.235    51 N    1.233
    47   8 O    1.897 --    46 C    1.477    48 N    0.137    51 N    0.131
    48   7 N    3.327 --    46 C    1.235    50 H    0.946    49 H    0.888
                            47 O    0.137
    49   1 H    0.946 --    48 N    0.888
    50   1 H    0.966 --    48 N    0.946
    51   7 N    3.323 --    46 C    1.233    53 H    0.944    52 H    0.897
                            47 O    0.131
    52   1 H    0.952 --    51 N    0.897
    53   1 H    0.963 --    51 N    0.944
 ---------------------------------------------------------------------------

Topologies differ in total number of bonds
Writing topology from bond orders to xtbtopo.mol

molecular dipole:
                 x           y           z       tot (Debye)
 q only:        0.294       0.190       0.930
   full:        1.211       0.707       1.370       4.982
molecular quadrupole (traceless):
                xx          xy          yy          xz          yz          zz
 q only:       58.919       4.633     -21.630      31.456      -0.654     -37.289
  q+dip:       64.537       2.193     -21.595      33.778      -2.354     -42.941
   full:       64.174       1.931     -20.930      34.042      -2.493     -43.244

           -------------------------------------------------
          |               Frequency Printout                |
           -------------------------------------------------
 projected vibrational frequencies (cm⁻¹)
eigval :       -0.00    -0.00     0.00     0.00     0.00     0.00
eigval :        8.04    12.84    19.61    25.64    35.98    38.04
eigval :       39.63    44.16    46.15    48.60    58.68    65.04
eigval :       69.62    84.21    86.87    93.50   101.07   105.17
eigval :      124.56   142.19   149.11   158.08   166.10   169.61
eigval :      184.79   206.21   219.84   242.88   256.53   282.00
eigval :      303.60   327.33   334.61   346.47   375.14   402.57
eigval :      427.66   437.35   453.94   455.73   459.04   463.02
eigval :      464.62   470.35   476.60   479.48   488.57   495.49
eigval :      498.37   505.72   523.97   533.15   545.74   547.15
eigval :      554.98   556.29   610.01   664.70   666.01   671.60
eigval :      677.96   685.50   702.63   716.05   763.98   806.85
eigval :      913.92   920.66   945.29   966.44   985.81   994.41
eigval :     1000.34  1003.34  1006.37  1012.20  1022.56  1024.13
eigval :     1029.92  1033.43  1038.38  1081.61  1087.88  1093.11
eigval :     1099.89  1104.85  1107.39  1124.91  1162.76  1222.79
eigval :     1243.87  1271.13  1315.01  1327.95  1344.65  1351.40
eigval :     1358.69  1363.08  1367.04  1383.48  1406.39  1413.83
eigval :     1427.90  1438.68  1439.85  1443.89  1449.70  1452.40
eigval :     1454.71  1459.52  1460.44  1465.15  1469.15  1483.16
eigval :     1487.72  1490.21  1508.07  1513.03  1521.36  1662.12
eigval :     1684.01  1697.50  1728.12  2896.36  2962.50  2984.09
eigval :     3014.02  3021.25  3032.87  3037.27  3039.96  3041.07
eigval :     3043.96  3046.62  3050.51  3057.01  3126.13  3268.72
eigval :     3294.80  3353.33  3395.32  3485.67  3497.80  3498.57
eigval :     3503.29  3522.52  3530.23  3534.26  3539.71  3553.05
eigval :     3562.04  3565.31  3567.60
 reduced masses (amu)
   1: 12.26   2: 12.52   3: 12.27   4: 12.76   5: 12.73   6: 12.54   7: 11.86   8: 12.22
   9: 11.73  10: 12.34  11: 11.94  12: 13.30  13: 12.10  14: 11.84  15: 12.96  16: 10.73
  17: 12.83  18: 12.43  19: 12.58  20: 12.67  21: 11.43  22: 12.34  23: 11.23  24: 12.87
  25: 13.00  26: 12.92  27: 12.67  28:  4.12  29: 12.36  30: 13.43  31:  8.98  32: 13.47
  33: 12.92  34:  5.55  35:  3.04  36:  2.59  37:  7.73  38:  7.48  39:  3.59  40:  2.85
  41:  7.06  42:  3.85  43:  8.82  44:  2.80  45:  2.50  46:  2.45  47:  8.24  48:  8.35
  49:  6.00  50:  5.92  51:  4.73  52:  7.60  53:  6.22  54:  8.42  55:  2.62  56:  3.37
  57:  1.59  58: 10.67  59: 10.25  60: 10.24  61:  9.86  62: 10.33  63:  3.24  64:  7.35
  65:  8.77  66: 11.72  67: 10.61  68:  8.40  69:  2.96  70:  3.55  71:  9.16  72:  2.41
  73:  6.96  74:  8.34  75:  5.28  76:  5.19  77:  4.82  78:  7.37  79:  7.50  80:  5.66
  81:  9.39  82:  6.92  83:  5.78  84:  9.77  85:  9.74  86:  7.89  87:  3.17  88: 10.24
  89:  6.71  90:  7.69  91:  4.31  92:  8.08  93:  7.86  94:  8.38  95:  2.87  96:  5.65
  97:  7.12  98:  8.27  99:  5.75 100:  3.35 101:  5.90 102:  4.80 103:  4.63 104:  4.94
 105:  4.10 106:  4.02 107:  2.62 108:  2.56 109:  2.09 110:  1.67 111:  2.34 112:  3.28
 113:  3.17 114:  3.20 115:  1.66 116:  1.66 117:  2.92 118:  1.67 119:  1.71 120:  1.62
 121:  1.74 122:  7.78 123:  9.17 124:  9.43 125:  9.01 126: 12.27 127: 12.69 128: 12.74
 129: 12.82 130:  1.76 131:  1.78 132:  1.66 133:  1.78 134:  1.89 135:  1.47 136:  1.81
 137:  1.83 138:  1.60 139:  1.88 140:  1.55 141:  1.84 142:  1.70 143:  1.82 144:  1.83
 145:  1.80 146:  1.72 147:  1.66 148:  1.45 149:  1.43 150:  1.45 151:  1.47 152:  1.89
 153:  1.94 154:  1.94 155:  1.99 156:  2.18 157:  2.20 158:  2.19 159:  2.18
 IR intensities (km·mol⁻¹)
   1:  1.41   2:  0.34   3:  1.23   4:  2.48   5:  1.73   6:  2.04   7:  1.57   8:  0.74
   9:  0.45  10:  0.83  11:  0.59  12:  5.03  13:  1.04  14:  1.61  15:  1.05  16:  3.34
  17:  3.75  18:  3.53  19:  0.51  20:  1.17  21:  6.86  22:  0.90  23:  8.88  24: 19.73
  25: 10.51  26:  5.19  27: 11.04  28:  0.32  29:  2.37  30: 16.26  31:  4.67  32: 10.65
  33: 41.66  34:  2.16  35:202.29  36:  4.99  37:  0.30  38:  2.67  39:512.91  40:  0.55
  41:  1.39  42: 15.65  43:  0.19  44:487.09  45: 41.24  46: 38.07  47: 19.12  48: 12.04
  49:119.56  50: 48.58  51: 74.31  52: 22.75  53: 43.37  54: 77.32  55:  5.43  56: 16.95
  57: 38.30  58: 36.77  59:  9.85  60: 47.42  61: 27.36  62: 17.72  63:193.20  64: 67.14
  65: 54.48  66: 41.83  67: 60.29  68:  8.87  69:237.01  70: 94.53  71:  1.52  72:317.03
  73: 15.56  74:  7.68  75:  6.62  76:  5.74  77:  1.81  78: 15.01  79:  4.21  80:  3.37
  81:  1.67  82: 20.43  83: 19.22  84:  2.35  85:  1.65  86: 17.39  87:  0.68  88:  0.15
  89: 16.87  90:  7.04  91: 15.85  92:  3.37  93:  1.42  94: 39.05  95:  5.52  96:  4.82
  97:  2.65  98:  3.92  99:  0.12 100:  6.22 101: 57.46 102: 18.16 103:167.77 104: 70.99
 105: 92.68 106: 45.77 107: 18.97 108: 16.83 109: 11.31 110:  2.80 111: 15.37 112: 11.79
 113:  8.52 114:  3.09 115: 10.54 116: 10.66 117: 13.48 118:  9.52 119: 34.84 120: 57.33
 121: 31.50 122: 77.50 123:499.39 124:428.41 125:917.87 126:276.56 127:****** 128:995.25
 129:405.74 130: 34.93 131: 94.09 132: 35.35 133:  2.90 134: 49.11 135: 40.04 136:  4.13
 137:  5.52 138:  7.23 139:  0.06 140:  0.95 141: 10.66 142:  1.76 143:837.57 144:563.32
 145:774.24 146:273.16 147:508.20 148: 26.40 149: 57.94 150: 26.19 151:  5.44 152: 12.43
 153: 10.69 154: 48.20 155: 27.33 156: 21.10 157: 16.70 158: 17.37 159: 25.16
 Raman intensities (amu)
Molecule has no symmetry elements
It seems to be the C1 point group
   1:  0.00   2:  0.00   3:  0.00   4:  0.00   5:  0.00   6:  0.00   7:  0.00   8:  0.00
   9:  0.00  10:  0.00  11:  0.00  12:  0.00  13:  0.00  14:  0.00  15:  0.00  16:  0.00
  17:  0.00  18:  0.00  19:  0.00  20:  0.00  21:  0.00  22:  0.00  23:  0.00  24:  0.00
  25:  0.00  26:  0.00  27:  0.00  28:  0.00  29:  0.00  30:  0.00  31:  0.00  32:  0.00
  33:  0.00  34:  0.00  35:  0.00  36:  0.00  37:  0.00  38:  0.00  39:  0.00  40:  0.00
  41:  0.00  42:  0.00  43:  0.00  44:  0.00  45:  0.00  46:  0.00  47:  0.00  48:  0.00
  49:  0.00  50:  0.00  51:  0.00  52:  0.00  53:  0.00  54:  0.00  55:  0.00  56:  0.00
  57:  0.00  58:  0.00  59:  0.00  60:  0.00  61:  0.00  62:  0.00  63:  0.00  64:  0.00
  65:  0.00  66:  0.00  67:  0.00  68:  0.00  69:  0.00  70:  0.00  71:  0.00  72:  0.00
  73:  0.00  74:  0.00  75:  0.00  76:  0.00  77:  0.00  78:  0.00  79:  0.00  80:  0.00
  81:  0.00  82:  0.00  83:  0.00  84:  0.00  85:  0.00  86:  0.00  87:  0.00  88:  0.00
  89:  0.00  90:  0.00  91:  0.00  92:  0.00  93:  0.00  94:  0.00  95:  0.00  96:  0.00
  97:  0.00  98:  0.00  99:  0.00 100:  0.00 101:  0.00 102:  0.00 103:  0.00 104:  0.00
 105:  0.00 106:  0.00 107:  0.00 108:  0.00 109:  0.00 110:  0.00 111:  0.00 112:  0.00
 113:  0.00 114:  0.00 115:  0.00 116:  0.00 117:  0.00 118:  0.00 119:  0.00 120:  0.00
 121:  0.00 122:  0.00 123:  0.00 124:  0.00 125:  0.00 126:  0.00 127:  0.00 128:  0.00
 129:  0.00 130:  0.00 131:  0.00 132:  0.00 133:  0.00 134:  0.00 135:  0.00 136:  0.00
 137:  0.00 138:  0.00 139:  0.00 140:  0.00 141:  0.00 142:  0.00 143:  0.00 144:  0.00
 145:  0.00 146:  0.00 147:  0.00 148:  0.00 149:  0.00 150:  0.00 151:  0.00 152:  0.00
 153:  0.00 154:  0.00 155:  0.00 156:  0.00 157:  0.00 158:  0.00 159:  0.00
 output can be read by thermo (or use thermo option).
 writing <g98.out> molden fake output.
 recommended (thermochemical) frequency scaling factor: 1.0
           -------------------------------------------------
          |             Thermodynamic Functions             |
           -------------------------------------------------

c1  symmetry found (for desy threshold:  0.10E+00) used in thermo

          ...................................................
          :                      SETUP                      :
          :.................................................:
          :  # frequencies                         153      :
          :  # imaginary freq.                       0      :
          :  linear?                             false      :
          :  only rotor calc.                    false      :
          :  symmetry                               c1      :
          :  rotational number                       1      :
          :  scaling factor                  1.0000000      :
          :  rotor cutoff                   50.0000000 cm⁻¹ :
          :  imag. cutoff                  -20.0000000 cm⁻¹ :
          :.................................................:

    mode    ω/cm⁻¹     T·S(HO)/kcal·mol⁻¹    T·S(FR)/kcal·mol⁻¹   T·S(vib)
   ------------------------------------------------------------------------
       1      8.04    -2.51783 (  0.07%)    -1.59783 ( 99.93%)    -1.59844
       2     12.84    -2.24045 (  0.43%)    -1.45918 ( 99.57%)    -1.46256
       3     19.61    -1.98963 (  2.31%)    -1.33375 ( 97.69%)    -1.34891
       4     25.64    -1.83091 (  6.47%)    -1.25432 ( 93.53%)    -1.29162
       5     35.98    -1.63055 ( 21.15%)    -1.15398 ( 78.85%)    -1.25476
       6     38.04    -1.59767 ( 25.10%)    -1.13750 ( 74.90%)    -1.25298
       7     39.63    -1.57344 ( 28.30%)    -1.12535 ( 71.70%)    -1.25217
       8     44.16    -1.50956 ( 37.83%)    -1.09330 ( 62.17%)    -1.25078
       9     46.15    -1.48351 ( 42.06%)    -1.08023 ( 57.94%)    -1.24986
      10     48.60    -1.45306 ( 47.16%)    -1.06494 ( 52.84%)    -1.24798
      11     58.68    -1.34200 ( 65.48%)    -1.00910 ( 34.52%)    -1.22709
      12     65.04    -1.28146 ( 74.12%)    -0.97861 ( 25.88%)    -1.20307
      13     69.62    -1.24155 ( 78.98%)    -0.95848 ( 21.02%)    -1.18205
      14     84.21    -1.13004 ( 88.95%)    -0.90209 ( 11.05%)    -1.10485
      15     86.87    -1.11188 ( 90.11%)    -0.89288 (  9.89%)    -1.09022
      16     93.50    -1.06899 ( 92.44%)    -0.87109 (  7.56%)    -1.05403
      17    101.07    -1.02374 ( 94.35%)    -0.84805 (  5.65%)    -1.01381
      18    105.17    -1.00063 ( 95.14%)    -0.83626 (  4.86%)    -0.99264
      19    124.56    -0.90291 ( 97.47%)    -0.78614 (  2.53%)    -0.89995
      20    142.19    -0.82712 ( 98.49%)    -0.74692 (  1.51%)    -0.82591
      21    149.11    -0.80012 ( 98.75%)    -0.73286 (  1.25%)    -0.79928
      22    158.08    -0.76703 ( 99.01%)    -0.71554 (  0.99%)    -0.76652
      23    166.10    -0.73917 ( 99.19%)    -0.70089 (  0.81%)    -0.73886
      24    169.61    -0.72742 ( 99.25%)    -0.69468 (  0.75%)    -0.72717
      25    184.79    -0.67962 ( 99.47%)    -0.66929 (  0.53%)    -0.67956
      26    206.21    -0.61926 ( 99.66%)    -0.63681 (  0.34%)    -0.61932
      27    219.84    -0.58451 ( 99.73%)    -0.61785 (  0.27%)    -0.58460
      28    242.88    -0.53121 ( 99.82%)    -0.58832 (  0.18%)    -0.53131
      29    256.53    -0.50247 ( 99.86%)    -0.57213 (  0.14%)    -0.50257
      30    282.00    -0.45363 ( 99.90%)    -0.54408 (  0.10%)    -0.45372
   ------------------------------------------------------------------------

   temp. (K)  partition function   enthalpy   heat capacity  entropy
                                   cal/mol     cal/K/mol   cal/K/mol   J/K/mol
 298.15  VIB  0.251E+18            19325.042    103.107    127.817
         ROT  0.128E+08              888.752      2.981     35.508
         INT  0.322E+25            20213.795    106.088    163.326
         TR   0.618E+28             1481.254      4.968     43.384
         TOT                       21695.0485   111.0559   206.7100   864.8747

       T/K    H(0)-H(T)+PV         H(T)/Eh          T*S/Eh         G(T)/Eh
   ------------------------------------------------------------------------
    298.15    0.345733E-01    0.474415E+00    0.982146E-01    0.376201E+00
   ------------------------------------------------------------------------

         :::::::::::::::::::::::::::::::::::::::::::::::::::::
         ::                  THERMODYNAMIC                  ::
         :::::::::::::::::::::::::::::::::::::::::::::::::::::
         :: total free energy         -80.559052947196 Eh   ::
         ::.................................................::
         :: total energy              -80.935253838348 Eh   ::
         :: zero point energy           0.439842223077 Eh   ::
         :: G(RRHO) w/o ZPVE           -0.063641331925 Eh   ::
         :: G(RRHO) contrib.            0.376200891152 Eh   ::
         :::::::::::::::::::::::::::::::::::::::::::::::::::::

           -------------------------------------------------
          | TOTAL ENERGY              -80.935253838348 Eh   |
          | TOTAL ENTHALPY            -80.460838354801 Eh   |
          | TOTAL FREE ENERGY         -80.559052947196 Eh   |
          | GRADIENT NORM               0.000134807381 Eh/α |
          | HOMO-LUMO GAP               5.414071999855 eV   |
           -------------------------------------------------

------------------------------------------------------------------------
 * finished run on 2024/01/10 at 15:35:57.247     
------------------------------------------------------------------------
 total:
 * wall-time:     0 d,  0 h,  0 min, 14.573 sec
 *  cpu-time:     0 d,  0 h,  0 min, 14.523 sec
 * ratio c/w:     0.997 speedup
 SCF:
 * wall-time:     0 d,  0 h,  0 min,  0.088 sec
 *  cpu-time:     0 d,  0 h,  0 min,  0.060 sec
 * ratio c/w:     0.680 speedup
 analytical hessian:
 * wall-time:     0 d,  0 h,  0 min, 14.459 sec
 *  cpu-time:     0 d,  0 h,  0 min, 14.436 sec
 * ratio c/w:     0.998 speedup

