 Entering Gaussian System
 *********************************************
 Gaussian 98:
 frequency output generated by the xtb code
 *********************************************
                         Standard orientation:
 --------------------------------------------------------------------
  Center     Atomic     Atomic              Coordinates (Angstroms)
  Number     Number      Type              X           Y           Z
 --------------------------------------------------------------------
    1          8             0        0.748498    1.849479   -2.673199
    2          6             0        0.376342    0.510650   -2.841157
    3          1             0       -0.640457    0.347523   -2.461518
    4          1             0        0.394370    0.338428   -3.921029
    5          6             0        1.368557   -0.407332   -2.104924
    6          1             0        1.423934   -0.076697   -1.064160
    7          1             0        2.355339   -0.278302   -2.555857
    8          7             0        1.038000   -1.856741   -2.101992
    9          6             0       -0.148790   -2.118178   -1.266602
   10          1             0        0.092221   -1.936825   -0.222840
   11          1             0       -0.459158   -3.154356   -1.381370
   12          1             0       -0.971279   -1.460115   -1.535209
   13          6             0        2.184396   -2.582482   -1.521743
   14          1             0        2.402203   -2.181047   -0.528410
   15          1             0        3.063148   -2.467564   -2.152605
   16          1             0        1.948526   -3.641151   -1.434497
   17          6             0        0.793309   -2.340711   -3.470491
   18          1             0        1.613965   -2.050292   -4.124101
   19          1             0       -0.133659   -1.924007   -3.857024
   20          1             0        0.714633   -3.426834   -3.470562
   21          1             0        0.864739    2.027109   -1.715189
   22          6             0        1.035507   -0.946963    1.780586
   23          8             0        2.088878   -1.052994    1.133742
   24          7             0        0.541120   -2.000586    2.489976
   25          1             0        1.182144   -2.734814    2.738866
   26          1             0       -0.224824   -1.827348    3.119687
   27          7             0        0.283117    0.153857    1.765841
   28          1             0       -0.630798    0.138871    2.201360
   29          1             0        0.533118    0.919141    1.145173
   30          6             0       -2.023581    1.582595   -0.296647
   31          8             0       -1.975416    0.429122   -0.738650
   32          7             0       -2.376694    1.845646    0.973864
   33          1             0       -2.482528    1.083250    1.636939
   34          1             0       -2.361079    2.782958    1.331169
   35          7             0       -1.781011    2.655045   -1.084230
   36          1             0       -1.685759    3.568894   -0.680022
   37          1             0       -1.378067    2.517411   -1.995956
   38          6             0       -3.049442   -1.338144    2.197343
   39          8             0       -2.353415   -0.447914    2.691457
   40          7             0       -3.112972   -1.536227    0.868670
   41          1             0       -2.700682   -0.825962    0.251326
   42          1             0       -3.788406   -2.169512    0.480550
   43          7             0       -3.720085   -2.214884    2.984990
   44          1             0       -4.396876   -2.853288    2.607972
   45          1             0       -3.748968   -2.030658    3.972667
   46          6             0        2.513001    2.352523    0.241118
   47          8             0        1.330356    2.105796   -0.034056
   48          7             0        3.346764    1.398366    0.678651
   49          1             0        2.966289    0.470399    0.886989
   50          1             0        4.270095    1.621971    1.002326
   51          7             0        3.016765    3.596134    0.085614
   52          1             0        3.986397    3.803267    0.239703
   53          1             0        2.435529    4.305689   -0.323260
 --------------------------------------------------------------------
     1 basis functions        1 primitive gaussians
     1 alpha electrons        1 beta electrons

 Harmonic frequencies (cm**-1), IR intensities (km*mol⁻¹),
 Raman scattering activities (A**4/amu), Raman depolarization ratios,
 reduced masses (AMU), force constants (mDyne/A) and normal coordinates:
                      1                      2                      3
                        a                      a                      a 
 Frequencies --    24.9954                25.4487                34.1557
 Red. masses --    12.2878                12.1244                12.2927
 Frc consts  --     0.0000                 0.0000                 0.0000
 IR Inten    --     0.5363                 2.3493                 2.8667
 Raman Activ --     0.0000                 0.0000                 0.0000
 Depolar     --     0.0000                 0.0000                 0.0000
 Atom AN      X      Y      Z        X      Y      Z        X      Y      Z
   1   8    -0.08   0.07   0.02     0.08  -0.04  -0.00    -0.20   0.11  -0.03
   2   6    -0.05   0.05   0.04     0.01  -0.02   0.03    -0.06   0.07  -0.04
   3   1    -0.01   0.01   0.02    -0.00   0.01   0.00    -0.01  -0.00  -0.01
   4   1    -0.02   0.01   0.01     0.01  -0.01   0.01    -0.01   0.02  -0.01
   5   6    -0.03   0.08   0.04    -0.04  -0.05   0.07     0.01   0.14  -0.03
   6   1    -0.01   0.02   0.01    -0.00   0.00   0.01    -0.00   0.05  -0.01
   7   1    -0.01   0.03   0.01    -0.01  -0.04   0.02    -0.00   0.06  -0.01
   8   7     0.01   0.07   0.05    -0.15  -0.03   0.16     0.11   0.13   0.00
   9   6    -0.00   0.05   0.03    -0.13   0.09   0.20     0.14   0.06   0.03
  10   1    -0.01   0.03   0.01    -0.02   0.02   0.05     0.04   0.03   0.01
  11   1     0.01   0.01   0.01    -0.07   0.03   0.06     0.06   0.01   0.02
  12   1    -0.01   0.00  -0.00    -0.02   0.05   0.06     0.03   0.00   0.01
  13   6     0.01   0.10   0.08    -0.17  -0.07   0.14     0.16   0.21  -0.01
  14   1    -0.01   0.03   0.03    -0.02  -0.01   0.03     0.04   0.06  -0.00
  15   1     0.01   0.04   0.03    -0.06  -0.05   0.02     0.04   0.08  -0.00
  16   1     0.01   0.03   0.02    -0.07  -0.01   0.06     0.07   0.06  -0.00
  17   6     0.04   0.05   0.05    -0.22  -0.07   0.18     0.11   0.08   0.02
  18   1     0.02   0.02   0.02    -0.07  -0.04   0.04     0.02   0.03  -0.00
  19   1     0.01   0.01   0.01    -0.06  -0.01   0.06     0.02   0.01   0.01
  20   1     0.02   0.01   0.02    -0.08  -0.02   0.07     0.05   0.02   0.01
  21   1     0.00   0.02   0.00     0.01  -0.00  -0.00    -0.03   0.02  -0.01
  22   6    -0.12   0.12   0.07     0.16   0.02   0.02     0.12  -0.11   0.10
  23   8    -0.11   0.03   0.13     0.23   0.09   0.09     0.18  -0.07   0.19
  24   7    -0.25   0.19   0.08     0.19   0.00   0.00     0.19  -0.10   0.17
  25   1    -0.09   0.04   0.03     0.06   0.01   0.02     0.06  -0.01   0.07
  26   1    -0.08   0.07   0.00     0.04  -0.01  -0.01     0.04  -0.03   0.03
  27   7    -0.03   0.20   0.03     0.09  -0.03  -0.04     0.01  -0.19  -0.04
  28   1    -0.01   0.07  -0.00     0.02  -0.02  -0.02    -0.00  -0.06  -0.02
  29   1     0.01   0.04   0.01     0.02  -0.00  -0.00     0.00  -0.05  -0.01
  30   6    -0.11  -0.01   0.03     0.03   0.04   0.01    -0.02  -0.03   0.02
  31   8    -0.07   0.01   0.01    -0.14   0.08  -0.10    -0.01  -0.03   0.02
  32   7    -0.21  -0.05   0.02     0.13  -0.04   0.05     0.04  -0.04   0.04
  33   1    -0.06  -0.02  -0.00     0.02  -0.02  -0.00     0.02  -0.01   0.01
  34   1    -0.07  -0.02   0.01     0.07  -0.02   0.04     0.01  -0.01   0.01
  35   7    -0.06   0.02   0.09     0.11   0.08   0.09    -0.10  -0.02   0.01
  36   1    -0.04   0.00   0.03     0.06   0.01   0.04    -0.03  -0.00   0.00
  37   1    -0.00   0.01   0.03     0.00   0.03   0.01    -0.04  -0.00  -0.00
  38   6     0.03  -0.14  -0.05    -0.04  -0.11  -0.18    -0.16   0.05  -0.00
  39   8    -0.05  -0.10  -0.04     0.08  -0.24  -0.18    -0.01  -0.08  -0.01
  40   7     0.02  -0.10  -0.06    -0.22   0.04  -0.21    -0.21   0.05  -0.00
  41   1    -0.01  -0.01  -0.01    -0.06   0.02  -0.05    -0.03  -0.00  -0.00
  42   1     0.02  -0.04  -0.02    -0.08   0.04  -0.05    -0.09   0.05   0.00
  43   7     0.15  -0.26  -0.08    -0.00  -0.17  -0.21    -0.36   0.20   0.00
  44   1     0.05  -0.08  -0.02    -0.02  -0.02  -0.06    -0.12   0.08   0.00
  45   1     0.04  -0.08  -0.02     0.03  -0.08  -0.05    -0.08   0.05   0.00
  46   6     0.21  -0.09  -0.11     0.01   0.09  -0.03     0.02  -0.11  -0.10
  47   8     0.19   0.02  -0.04     0.02   0.04   0.00     0.02  -0.18  -0.06
  48   7     0.14  -0.15  -0.08     0.05   0.16   0.02     0.04  -0.06  -0.01
  49   1     0.01  -0.02   0.01     0.03   0.04   0.01     0.02  -0.01   0.02
  50   1     0.05  -0.06  -0.04     0.02   0.05  -0.01     0.01  -0.00  -0.01
  51   7     0.36  -0.17  -0.28    -0.04   0.10  -0.12    -0.00  -0.14  -0.27
  52   1     0.10  -0.07  -0.08    -0.01   0.04  -0.04    -0.00  -0.02  -0.07
  53   1     0.11  -0.04  -0.08    -0.02   0.01  -0.05    -0.01  -0.05  -0.09
                      4                      5                      6
                        a                      a                      a 
 Frequencies --    36.5803                41.5901                50.4185
 Red. masses --    12.4478                12.6808                12.2432
 Frc consts  --     0.0000                 0.0000                 0.0000
 IR Inten    --     0.3218                 1.9068                 2.1835
 Raman Activ --     0.0000                 0.0000                 0.0000
 Depolar     --     0.0000                 0.0000                 0.0000
 Atom AN      X      Y      Z        X      Y      Z        X      Y      Z
   1   8     0.03  -0.07   0.07     0.05   0.07   0.09     0.14   0.09   0.14
   2   6     0.00  -0.06   0.10     0.03   0.07   0.06     0.15   0.09   0.00
   3   1     0.01  -0.01   0.04     0.01   0.02   0.02     0.03   0.02  -0.05
   4   1    -0.02  -0.02   0.03     0.01   0.02   0.02     0.09   0.04  -0.00
   5   6     0.04  -0.06   0.05     0.02   0.03   0.03     0.04   0.05   0.09
   6   1     0.01  -0.03   0.02     0.02   0.00   0.01    -0.02   0.01   0.03
   7   1     0.01  -0.01   0.01     0.00  -0.00   0.00     0.03   0.01   0.06
   8   7     0.08  -0.08  -0.01    -0.03   0.04   0.02    -0.01   0.07   0.02
   9   6     0.06  -0.13  -0.04    -0.01   0.06   0.06    -0.01   0.07   0.02
  10   1     0.01  -0.05  -0.01     0.02  -0.01   0.02     0.01  -0.03   0.01
  11   1     0.03  -0.04  -0.03    -0.02   0.02   0.00    -0.04   0.03  -0.03
  12   1     0.01  -0.04  -0.01     0.00   0.04   0.04     0.01   0.06   0.04
  13   6     0.08  -0.06  -0.00    -0.03  -0.01  -0.05    -0.03  -0.01  -0.02
  14   1     0.02  -0.02   0.00     0.01  -0.01  -0.02    -0.00  -0.01  -0.00
  15   1     0.02  -0.01   0.00    -0.02  -0.01  -0.03    -0.01  -0.01  -0.01
  16   1     0.03  -0.02  -0.00    -0.02  -0.00  -0.01    -0.02  -0.00  -0.01
  17   6     0.12  -0.04  -0.03    -0.11   0.08   0.02    -0.03   0.14  -0.00
  18   1     0.04   0.01  -0.00    -0.04   0.02  -0.00    -0.01   0.04   0.00
  19   1     0.03  -0.02  -0.01    -0.03   0.03   0.02    -0.01   0.05   0.01
  20   1     0.05  -0.01  -0.02    -0.04   0.02  -0.00    -0.01   0.04  -0.02
  21   1     0.02  -0.01   0.02     0.02   0.02   0.02    -0.02   0.01   0.04
  22   6    -0.03   0.09  -0.17     0.08  -0.01  -0.05    -0.03  -0.01   0.10
  23   8    -0.01   0.14  -0.15     0.12  -0.02  -0.01    -0.12  -0.01  -0.03
  24   7    -0.15   0.02  -0.38     0.07   0.00  -0.05    -0.10  -0.11  -0.09
  25   1    -0.05  -0.01  -0.11     0.02   0.01  -0.00    -0.04  -0.06  -0.08
  26   1    -0.05  -0.01  -0.11     0.01   0.00  -0.02    -0.01  -0.04   0.00
  27   7     0.04   0.15  -0.04     0.06  -0.03  -0.14     0.14   0.11   0.47
  28   1     0.01   0.03  -0.02     0.02  -0.00  -0.04     0.04   0.02   0.12
  29   1     0.02   0.05   0.01     0.03  -0.00  -0.02     0.02   0.04   0.13
  30   6     0.03  -0.09   0.12    -0.20  -0.11  -0.19     0.06  -0.09  -0.11
  31   8     0.03  -0.10   0.13    -0.28  -0.15  -0.18    -0.03  -0.11  -0.15
  32   7    -0.03  -0.11   0.12    -0.11  -0.08  -0.18     0.31  -0.10  -0.06
  33   1    -0.01  -0.03   0.03    -0.01  -0.02  -0.04     0.07  -0.03  -0.02
  34   1    -0.00  -0.03   0.04    -0.02  -0.02  -0.06     0.09  -0.03  -0.02
  35   7     0.08  -0.09   0.16    -0.27  -0.15  -0.25    -0.06  -0.09  -0.16
  36   1     0.02  -0.03   0.05    -0.07  -0.03  -0.08     0.02  -0.03  -0.04
  37   1     0.03  -0.02   0.05    -0.10  -0.04  -0.08    -0.05  -0.02  -0.06
  38   6    -0.15  -0.02   0.05    -0.01   0.03   0.06    -0.01   0.00   0.02
  39   8     0.05  -0.19   0.04     0.08   0.04  -0.07    -0.01   0.01   0.02
  40   7    -0.28   0.02   0.06    -0.23   0.00   0.09    -0.05   0.01   0.03
  41   1    -0.04  -0.02   0.01    -0.07  -0.02  -0.00    -0.01  -0.00  -0.00
  42   1    -0.11   0.04   0.02    -0.07  -0.01   0.05    -0.01  -0.00   0.01
  43   7    -0.33   0.12   0.07     0.09   0.07   0.20     0.02  -0.01   0.04
  44   1    -0.12   0.06   0.03     0.00   0.02   0.09    -0.00   0.00   0.01
  45   1    -0.06   0.02   0.02     0.06   0.03   0.05     0.01  -0.00   0.01
  46   6     0.08   0.13  -0.03     0.16   0.01   0.12    -0.09  -0.01  -0.06
  47   8     0.07   0.20   0.03     0.19   0.05   0.08    -0.19   0.05   0.21
  48   7     0.07   0.11  -0.08     0.16  -0.03   0.06    -0.07  -0.05  -0.20
  49   1     0.01   0.03  -0.02     0.04  -0.01   0.00    -0.02  -0.00  -0.02
  50   1     0.03   0.02  -0.04     0.04  -0.01   0.03     0.00  -0.03  -0.11
  51   7     0.13   0.13  -0.06     0.18   0.03   0.26    -0.04  -0.06  -0.26
  52   1     0.04   0.02  -0.03     0.05  -0.00   0.08    -0.00  -0.03  -0.12
  53   1     0.03   0.04  -0.00     0.05   0.02   0.08    -0.02  -0.01  -0.04
                      7                      8                      9
                        a                      a                      a 
 Frequencies --    55.9544                59.1771                63.3625
 Red. masses --    12.3707                12.4676                12.1706
 Frc consts  --     0.0000                 0.0000                 0.0000
 IR Inten    --     0.9898                 1.7812                 2.4283
 Raman Activ --     0.0000                 0.0000                 0.0000
 Depolar     --     0.0000                 0.0000                 0.0000
 Atom AN      X      Y      Z        X      Y      Z        X      Y      Z
   1   8    -0.05  -0.02  -0.06     0.06   0.03  -0.25    -0.17  -0.07   0.04
   2   6    -0.02  -0.02  -0.05     0.03   0.03  -0.17    -0.10  -0.08   0.08
   3   1    -0.00  -0.01  -0.01     0.01   0.01  -0.04    -0.02  -0.03   0.04
   4   1    -0.01  -0.01  -0.01    -0.00  -0.00  -0.05    -0.04  -0.03   0.02
   5   6     0.01  -0.00  -0.06     0.03   0.04  -0.17    -0.01  -0.01   0.05
   6   1     0.01   0.00  -0.02     0.02   0.02  -0.05    -0.01  -0.01   0.02
   7   1    -0.00  -0.00  -0.03     0.01   0.00  -0.06    -0.01   0.02   0.01
   8   7     0.02  -0.00  -0.03     0.01   0.05  -0.10     0.12  -0.04   0.04
   9   6     0.07   0.01   0.05     0.04   0.10  -0.04     0.10  -0.14  -0.01
  10   1     0.04   0.01   0.01     0.03   0.04  -0.02     0.01  -0.03   0.00
  11   1     0.02   0.00   0.02     0.00   0.03   0.00     0.06  -0.05  -0.00
  12   1     0.02   0.00   0.03     0.01   0.03  -0.00     0.02  -0.06  -0.01
  13   6     0.05   0.01  -0.08     0.02   0.05  -0.10     0.16   0.06   0.07
  14   1     0.02   0.00  -0.02     0.01   0.02  -0.03     0.03   0.02   0.03
  15   1     0.01   0.01  -0.03     0.00   0.01  -0.03     0.05   0.04   0.03
  16   1     0.02   0.00  -0.02     0.01   0.02  -0.02     0.07   0.01   0.01
  17   6    -0.06  -0.02  -0.00    -0.05  -0.01  -0.07     0.22  -0.06   0.03
  18   1    -0.03  -0.01  -0.02    -0.02  -0.01  -0.03     0.06   0.01   0.02
  19   1    -0.02  -0.01   0.01    -0.02  -0.00  -0.01     0.06  -0.04  -0.00
  20   1    -0.02  -0.01   0.01    -0.02  -0.00  -0.01     0.09  -0.02   0.01
  21   1    -0.01  -0.00  -0.02     0.03   0.01  -0.06    -0.04  -0.01   0.01
  22   6     0.01   0.10   0.10    -0.06   0.07   0.05    -0.03  -0.07  -0.02
  23   8    -0.10  -0.01  -0.04    -0.11  -0.01   0.00     0.02  -0.06   0.05
  24   7     0.09   0.24   0.33    -0.11   0.14   0.11    -0.10  -0.11  -0.12
  25   1     0.02   0.06   0.08    -0.05   0.02   0.03    -0.03  -0.03  -0.03
  26   1     0.03   0.08   0.09    -0.03   0.05   0.02    -0.03  -0.03  -0.04
  27   7     0.05   0.14   0.09     0.02   0.14   0.08    -0.01  -0.07  -0.02
  28   1     0.02   0.04   0.03     0.01   0.05   0.02    -0.01  -0.02  -0.01
  29   1    -0.01   0.02  -0.01    -0.00   0.02  -0.01     0.00  -0.01   0.01
  30   6     0.05  -0.04   0.01     0.10  -0.10   0.00    -0.01   0.13  -0.01
  31   8     0.04  -0.04  -0.02    -0.02  -0.10  -0.03    -0.12   0.14  -0.01
  32   7     0.06  -0.08   0.02     0.17  -0.10   0.02     0.10   0.16   0.02
  33   1     0.01  -0.03  -0.00     0.02  -0.03  -0.00     0.02   0.04   0.00
  34   1     0.02  -0.02   0.01     0.07  -0.03   0.01     0.04   0.04   0.01
  35   7     0.06  -0.03   0.04     0.22  -0.10   0.04    -0.02   0.12  -0.03
  36   1     0.02  -0.01   0.02     0.09  -0.03   0.02     0.02   0.03  -0.01
  37   1     0.01  -0.00   0.01     0.04  -0.03   0.00    -0.02   0.02  -0.01
  38   6    -0.06  -0.04  -0.04    -0.05  -0.04   0.09     0.01   0.07  -0.02
  39   8     0.00  -0.12  -0.03     0.04  -0.09   0.05     0.04   0.07  -0.05
  40   7    -0.10   0.01  -0.05    -0.35   0.12   0.09    -0.38   0.33  -0.03
  41   1    -0.01  -0.00  -0.01    -0.08   0.01   0.01    -0.10   0.08  -0.01
  42   1    -0.04   0.02  -0.02    -0.09   0.02   0.04    -0.08   0.06   0.00
  43   7    -0.14  -0.01  -0.07     0.13  -0.14   0.14     0.38  -0.19   0.02
  44   1    -0.04   0.01  -0.02    -0.00  -0.01   0.05     0.06  -0.02   0.02
  45   1    -0.03  -0.02  -0.02     0.07  -0.05   0.04     0.14  -0.07   0.01
  46   6    -0.00  -0.02  -0.03    -0.03  -0.02   0.04    -0.06  -0.04  -0.02
  47   8    -0.02   0.07  -0.04     0.05  -0.12  -0.23    -0.08  -0.02   0.04
  48   7     0.07  -0.20  -0.52    -0.11   0.07   0.40    -0.02  -0.08  -0.18
  49   1    -0.00  -0.04  -0.13    -0.03   0.01   0.07    -0.01  -0.02  -0.03
  50   1     0.01  -0.07  -0.10    -0.05   0.03   0.15    -0.01  -0.02  -0.05
  51   7    -0.04   0.05   0.44    -0.04  -0.02   0.02    -0.08  -0.02   0.07
  52   1     0.00  -0.01   0.08    -0.03   0.01   0.07    -0.02  -0.01   0.00
  53   1    -0.01   0.04   0.17     0.01  -0.02  -0.05    -0.03   0.00   0.04
                     10                     11                     12
                        a                      a                      a 
 Frequencies --    69.2792                77.8176                82.1811
 Red. masses --    12.6012                10.9584                11.6564
 Frc consts  --     0.0000                 0.0000                 0.0000
 IR Inten    --     0.4493                 6.5408                 1.8911
 Raman Activ --     0.0000                 0.0000                 0.0000
 Depolar     --     0.0000                 0.0000                 0.0000
 Atom AN      X      Y      Z        X      Y      Z        X      Y      Z
   1   8     0.41   0.06   0.03     0.02   0.07  -0.19     0.04  -0.05   0.06
   2   6     0.23   0.09   0.02     0.02   0.06  -0.14    -0.09  -0.02   0.14
   3   1     0.06   0.05   0.00    -0.01   0.03  -0.07    -0.01   0.02   0.09
   4   1     0.07   0.02   0.01     0.04  -0.00  -0.04    -0.08  -0.01   0.04
   5   6     0.13  -0.01   0.04    -0.08   0.09   0.04    -0.03  -0.06   0.01
   6   1     0.03  -0.02   0.02    -0.07   0.05   0.01     0.01  -0.04   0.01
   7   1     0.05  -0.02   0.03    -0.01   0.02   0.05    -0.02  -0.00  -0.01
   8   7     0.03   0.02  -0.03    -0.08   0.10   0.08     0.01  -0.08  -0.09
   9   6    -0.05   0.08  -0.11    -0.24   0.13  -0.15    -0.09  -0.13  -0.24
  10   1    -0.03   0.01  -0.03    -0.14   0.09  -0.04    -0.08   0.03  -0.07
  11   1    -0.03   0.03  -0.05    -0.04   0.03  -0.02     0.03  -0.06  -0.03
  12   1     0.00   0.04  -0.04    -0.06   0.01  -0.12    -0.05  -0.10  -0.15
  13   6    -0.07  -0.09   0.03    -0.18   0.13   0.33    -0.04  -0.06   0.03
  14   1    -0.03  -0.03   0.01    -0.10   0.06   0.10    -0.05  -0.03   0.02
  15   1    -0.01  -0.05   0.02    -0.02   0.02   0.14     0.01   0.00   0.04
  16   1    -0.05  -0.02   0.00    -0.06   0.04   0.11    -0.00  -0.02  -0.02
  17   6     0.08   0.08  -0.06     0.21   0.00   0.05     0.20  -0.03  -0.14
  18   1     0.04   0.01   0.00     0.10  -0.01   0.06     0.08  -0.00  -0.00
  19   1     0.04   0.04  -0.03     0.09  -0.01  -0.05     0.07  -0.01  -0.07
  20   1     0.00   0.02  -0.03     0.06   0.00   0.03     0.06  -0.01  -0.05
  21   1     0.05   0.02   0.01     0.00   0.02  -0.05     0.00   0.01   0.01
  22   6    -0.03  -0.04  -0.02    -0.01  -0.02  -0.01    -0.00   0.04   0.02
  23   8    -0.02  -0.02  -0.01     0.12   0.01   0.21    -0.07  -0.02  -0.09
  24   7     0.14   0.04   0.21    -0.17  -0.07  -0.18     0.12   0.16   0.26
  25   1     0.06   0.04   0.08    -0.06  -0.02  -0.02     0.04   0.05   0.07
  26   1     0.04   0.01   0.05    -0.07  -0.02  -0.08     0.04   0.06   0.07
  27   7    -0.22  -0.18  -0.30    -0.03  -0.04  -0.13    -0.03   0.03  -0.07
  28   1    -0.05  -0.04  -0.06    -0.01  -0.01  -0.05     0.01   0.02   0.01
  29   1    -0.05  -0.04  -0.07     0.01  -0.00  -0.01    -0.01   0.00  -0.03
  30   6    -0.03  -0.02   0.04     0.05  -0.06  -0.01    -0.05   0.04  -0.01
  31   8    -0.04  -0.01   0.02    -0.04  -0.06  -0.02    -0.32   0.06  -0.09
  32   7    -0.22  -0.02  -0.00     0.20  -0.04   0.03     0.44   0.01   0.13
  33   1    -0.05  -0.00   0.00     0.03  -0.01   0.01     0.08  -0.00   0.02
  34   1    -0.03  -0.01   0.01     0.06  -0.01   0.00     0.13   0.00   0.04
  35   7     0.15  -0.01   0.11     0.04  -0.06  -0.02    -0.22   0.06  -0.04
  36   1     0.03  -0.01   0.04     0.03  -0.02  -0.01     0.02   0.00  -0.00
  37   1     0.04   0.00   0.03    -0.02  -0.02  -0.02    -0.13   0.01  -0.04
  38   6    -0.05  -0.01   0.10     0.04  -0.04   0.07     0.00  -0.03  -0.01
  39   8    -0.08   0.02   0.09     0.09  -0.07   0.06     0.01  -0.07   0.02
  40   7    -0.18   0.06   0.10     0.09  -0.10   0.08     0.07  -0.06  -0.01
  41   1    -0.05   0.01   0.02     0.02  -0.03   0.02     0.00  -0.00  -0.00
  42   1    -0.03  -0.00   0.03     0.01  -0.02   0.02     0.00  -0.00  -0.00
  43   7     0.09  -0.10   0.13    -0.03   0.03   0.09    -0.09   0.00  -0.04
  44   1     0.02  -0.02   0.04    -0.01   0.01   0.03    -0.02  -0.00  -0.02
  45   1     0.04  -0.03   0.04    -0.01   0.01   0.02    -0.03  -0.01  -0.01
  46   6    -0.08   0.02  -0.08     0.01  -0.03  -0.04     0.02   0.05   0.04
  47   8    -0.15   0.11   0.08     0.03  -0.06  -0.14     0.01   0.13   0.05
  48   7    -0.08  -0.03  -0.20     0.06  -0.05  -0.20    -0.06   0.04   0.15
  49   1    -0.03  -0.00  -0.04     0.02  -0.01  -0.04    -0.02   0.01   0.02
  50   1    -0.01  -0.02  -0.09     0.00  -0.00  -0.02    -0.01  -0.01   0.02
  51   7    -0.01  -0.02  -0.19    -0.08   0.04   0.20     0.13  -0.00  -0.07
  52   1     0.00  -0.02  -0.08    -0.02   0.01   0.05     0.04  -0.02  -0.01
  53   1    -0.01   0.01  -0.03    -0.02   0.01   0.05     0.05   0.01  -0.02
                     13                     14                     15
                        a                      a                      a 
 Frequencies --    89.0849                94.5082               100.4761
 Red. masses --    11.5873                12.0032                13.1269
 Frc consts  --     0.0000                 0.0000                 0.0000
 IR Inten    --     4.5153                 7.5677                19.1308
 Raman Activ --     0.0000                 0.0000                 0.0000
 Depolar     --     0.0000                 0.0000                 0.0000
 Atom AN      X      Y      Z        X      Y      Z        X      Y      Z
   1   8    -0.14   0.03   0.05     0.34  -0.02  -0.21    -0.08   0.01   0.04
   2   6    -0.06   0.01   0.06     0.14   0.01  -0.02     0.05  -0.01  -0.07
   3   1    -0.02  -0.01   0.01     0.06   0.04   0.05    -0.01  -0.02  -0.08
   4   1    -0.01   0.00   0.02    -0.01  -0.02  -0.00     0.08   0.01  -0.02
   5   6    -0.02   0.06   0.07     0.20  -0.02  -0.12    -0.07   0.01   0.11
   6   1    -0.01   0.02   0.02     0.11   0.01  -0.04    -0.08  -0.00   0.03
   7   1    -0.01   0.03   0.02     0.04  -0.03  -0.08     0.00   0.01   0.08
   8   7     0.02   0.05   0.09     0.11  -0.00   0.03    -0.07   0.00   0.03
   9   6     0.14  -0.01   0.23     0.17   0.14   0.18    -0.07  -0.05   0.01
  10   1     0.10  -0.08   0.07     0.09   0.06   0.04    -0.01  -0.08   0.01
  11   1     0.01   0.01   0.02     0.03   0.05   0.08    -0.05   0.00  -0.05
  12   1     0.05   0.04   0.15     0.05   0.05   0.06    -0.00   0.03   0.05
  13   6     0.13   0.08  -0.10     0.11  -0.03  -0.04    -0.07  -0.03   0.01
  14   1     0.07   0.02  -0.03     0.06  -0.01  -0.02    -0.01  -0.01   0.00
  15   1     0.01   0.03  -0.06     0.02  -0.03  -0.03    -0.02  -0.01  -0.00
  16   1     0.05   0.02  -0.02     0.02  -0.01   0.00    -0.03  -0.01   0.00
  17   6    -0.16   0.08   0.10    -0.09  -0.09   0.10    -0.05   0.07   0.00
  18   1    -0.09   0.05  -0.01    -0.04  -0.06  -0.01    -0.02   0.04   0.01
  19   1    -0.08   0.01   0.08    -0.03  -0.01   0.05    -0.02   0.02   0.01
  20   1    -0.02   0.02   0.02    -0.06  -0.03   0.06    -0.00   0.02  -0.02
  21   1    -0.02   0.01   0.01     0.04   0.03  -0.05    -0.03  -0.01   0.01
  22   6    -0.11  -0.02  -0.09    -0.05  -0.03  -0.04    -0.01  -0.00  -0.03
  23   8    -0.03  -0.01   0.04    -0.01  -0.08   0.04     0.02  -0.09   0.03
  24   7    -0.13   0.01  -0.05    -0.19  -0.02  -0.13    -0.05   0.10   0.09
  25   1    -0.03   0.02   0.03    -0.07  -0.02  -0.02    -0.02   0.03   0.06
  26   1    -0.05   0.01  -0.04    -0.06   0.01  -0.05    -0.03   0.05   0.00
  27   7    -0.24  -0.12  -0.36     0.01   0.01  -0.07    -0.02  -0.02  -0.22
  28   1    -0.06  -0.02  -0.08     0.00   0.01  -0.02    -0.00   0.01  -0.05
  29   1    -0.04  -0.02  -0.07     0.01  -0.00  -0.02     0.00  -0.01  -0.06
  30   6     0.14  -0.04  -0.05    -0.14   0.10   0.09     0.13  -0.03   0.01
  31   8    -0.13  -0.06  -0.06    -0.12   0.13   0.07     0.57  -0.08   0.18
  32   7     0.37   0.03  -0.00     0.11   0.06   0.17     0.15   0.01  -0.00
  33   1     0.03   0.01  -0.01     0.04   0.01   0.04     0.06   0.01   0.01
  34   1     0.13   0.01  -0.01    -0.00   0.02   0.05    -0.08   0.02  -0.04
  35   7     0.27  -0.08  -0.06    -0.42   0.14   0.04    -0.33  -0.06  -0.18
  36   1     0.14  -0.03  -0.01    -0.11   0.04   0.00    -0.15   0.01  -0.08
  37   1     0.04  -0.03  -0.03    -0.16   0.04  -0.01    -0.04  -0.02  -0.03
  38   6    -0.02  -0.04   0.04     0.03  -0.04   0.02     0.03  -0.02  -0.01
  39   8    -0.16   0.06   0.04     0.08  -0.10   0.07     0.14  -0.14   0.05
  40   7     0.13  -0.16   0.04     0.08  -0.03   0.02    -0.11   0.18  -0.03
  41   1     0.01  -0.03   0.01     0.02   0.00   0.01     0.03   0.03   0.01
  42   1     0.05  -0.06   0.01     0.01   0.01  -0.00    -0.03   0.06  -0.02
  43   7    -0.01  -0.04   0.04    -0.07   0.00  -0.02     0.03  -0.08  -0.08
  44   1     0.02  -0.04   0.01    -0.02   0.00  -0.01    -0.02   0.01  -0.03
  45   1    -0.03   0.00   0.01    -0.02  -0.01  -0.00     0.02  -0.05  -0.02
  46   6    -0.01   0.04  -0.00    -0.06  -0.04  -0.04    -0.03   0.04   0.03
  47   8    -0.04   0.15   0.03    -0.06  -0.02  -0.12    -0.06   0.18   0.02
  48   7    -0.07  -0.02  -0.04    -0.09  -0.06  -0.05    -0.13  -0.02   0.08
  49   1    -0.03  -0.00  -0.01    -0.03  -0.02  -0.01    -0.04  -0.00   0.01
  50   1    -0.01  -0.02  -0.02    -0.03  -0.02   0.01    -0.03  -0.03   0.01
  51   7     0.09   0.00  -0.02    -0.05  -0.03   0.04     0.12  -0.02  -0.02
  52   1     0.03  -0.02  -0.00    -0.01  -0.02   0.01     0.03  -0.03   0.01
  53   1     0.03   0.02   0.01    -0.00  -0.01  -0.00     0.05   0.01   0.00
                     16                     17                     18
                        a                      a                      a 
 Frequencies --   105.9249               127.0597               133.0532
 Red. masses --    13.6908                 8.8102                13.4667
 Frc consts  --     0.0000                 0.0000                 0.0000
 IR Inten    --     1.9410                 8.1569                 4.2389
 Raman Activ --     0.0000                 0.0000                 0.0000
 Depolar     --     0.0000                 0.0000                 0.0000
 Atom AN      X      Y      Z        X      Y      Z        X      Y      Z
   1   8     0.04   0.00  -0.02    -0.16   0.02   0.14    -0.18   0.01   0.14
   2   6     0.03   0.00  -0.03    -0.08   0.02  -0.02     0.08  -0.03  -0.10
   3   1     0.01   0.00  -0.00     0.01  -0.03   0.05     0.01  -0.06  -0.09
   4   1     0.00   0.01  -0.01    -0.09   0.05  -0.01     0.09   0.03  -0.03
   5   6     0.04  -0.01  -0.06     0.14  -0.03  -0.37     0.06   0.01  -0.03
   6   1     0.03   0.00  -0.02     0.17   0.01  -0.12     0.01   0.02  -0.01
   7   1     0.01  -0.02  -0.03    -0.01  -0.05  -0.22     0.02  -0.01  -0.00
   8   7    -0.01  -0.00  -0.01     0.01  -0.00  -0.10     0.03   0.01   0.06
   9   6    -0.02   0.06  -0.01     0.01   0.25  -0.03     0.02   0.09   0.07
  10   1    -0.01   0.04  -0.01    -0.04   0.30  -0.04     0.01   0.04   0.02
  11   1    -0.00   0.01   0.02     0.10   0.02   0.19    -0.00   0.03   0.04
  12   1    -0.01   0.01  -0.02    -0.05  -0.06  -0.16     0.01   0.03   0.01
  13   6    -0.03  -0.01   0.02    -0.04   0.03   0.05     0.01   0.01   0.10
  14   1    -0.01   0.01   0.00    -0.04   0.02   0.02     0.00   0.02   0.02
  15   1    -0.01  -0.02   0.01     0.01  -0.00   0.04     0.00  -0.01   0.03
  16   1    -0.02   0.00   0.02    -0.01   0.01   0.03    -0.01   0.01   0.04
  17   6    -0.02  -0.04   0.00    -0.05  -0.26   0.01     0.03  -0.06   0.09
  18   1     0.00  -0.03   0.00     0.03  -0.20  -0.00     0.02  -0.05   0.03
  19   1     0.00  -0.00  -0.01     0.03  -0.01  -0.05     0.02  -0.00   0.01
  20   1    -0.02  -0.01   0.01    -0.12  -0.07   0.08    -0.02  -0.02   0.05
  21   1     0.02  -0.01  -0.00    -0.03  -0.01   0.04    -0.04  -0.04   0.04
  22   6    -0.03   0.04  -0.02     0.00  -0.06   0.05    -0.09   0.07  -0.11
  23   8    -0.07   0.22  -0.10     0.05  -0.04   0.12    -0.17   0.15  -0.27
  24   7     0.16  -0.08  -0.06    -0.04  -0.09  -0.01     0.09   0.04  -0.05
  25   1     0.08  -0.00  -0.04    -0.01  -0.03  -0.00     0.05   0.02  -0.03
  26   1     0.06  -0.06   0.02    -0.02  -0.03  -0.01     0.04  -0.01   0.01
  27   7    -0.17  -0.06   0.08    -0.01  -0.07   0.02    -0.19  -0.00  -0.08
  28   1    -0.04  -0.04   0.03    -0.00  -0.02   0.00    -0.03  -0.01   0.03
  29   1    -0.06  -0.00   0.03     0.01  -0.01   0.03    -0.06   0.01  -0.01
  30   6     0.04   0.00   0.05     0.05  -0.03  -0.02    -0.02   0.02  -0.12
  31   8     0.15  -0.04   0.18     0.10  -0.06   0.02    -0.05   0.07  -0.28
  32   7     0.22   0.08   0.08    -0.01  -0.00  -0.05    -0.03  -0.12  -0.09
  33   1     0.01   0.03   0.03    -0.00   0.00  -0.01     0.00  -0.04  -0.03
  34   1    -0.02   0.03  -0.01    -0.00   0.00  -0.02     0.00  -0.04  -0.00
  35   7    -0.20  -0.05  -0.10     0.05  -0.06  -0.06     0.01   0.10  -0.01
  36   1    -0.06  -0.00  -0.05     0.01  -0.02  -0.02    -0.00   0.02   0.02
  37   1    -0.04  -0.03  -0.02     0.04  -0.02  -0.01     0.01   0.05  -0.00
  38   6    -0.19  -0.02   0.03    -0.01   0.00   0.00     0.08   0.00   0.12
  39   8    -0.49   0.16   0.08    -0.01   0.01  -0.00     0.19  -0.21   0.39
  40   7    -0.11   0.00   0.03    -0.02   0.02   0.00     0.11   0.28   0.09
  41   1    -0.02   0.00   0.02     0.00  -0.00  -0.00     0.05   0.07   0.04
  42   1     0.04  -0.06  -0.01    -0.00  -0.00  -0.00     0.02   0.10  -0.01
  43   7     0.02  -0.25  -0.02     0.02  -0.02   0.00    -0.11  -0.07  -0.11
  44   1     0.03  -0.09  -0.02    -0.00   0.00   0.00    -0.05   0.03  -0.08
  45   1    -0.04  -0.06  -0.01     0.00   0.00   0.00    -0.04  -0.08  -0.02
  46   6     0.14   0.00  -0.03    -0.02   0.10   0.06     0.03  -0.08   0.04
  47   8     0.21  -0.17  -0.04    -0.09   0.28   0.22     0.04  -0.17   0.10
  48   7     0.28   0.09  -0.07    -0.09  -0.00  -0.02     0.09  -0.04   0.04
  49   1     0.08   0.03  -0.01    -0.04   0.01   0.01     0.03  -0.01   0.00
  50   1     0.06   0.05   0.01    -0.00  -0.03  -0.04     0.02  -0.00   0.00
  51   7    -0.02   0.09   0.03     0.16   0.02  -0.04    -0.05  -0.07  -0.01
  52   1    -0.01   0.05  -0.01     0.05  -0.03  -0.02    -0.01  -0.00  -0.02
  53   1    -0.02  -0.00  -0.01     0.05   0.03   0.03    -0.03  -0.03  -0.01
                     19                     20                     21
                        a                      a                      a 
 Frequencies --   141.9722               143.8392               153.0120
 Red. masses --    12.5777                13.0562                12.8133
 Frc consts  --     0.0000                 0.0000                 0.0000
 IR Inten    --    17.6104                17.4065                 7.7231
 Raman Activ --     0.0000                 0.0000                 0.0000
 Depolar     --     0.0000                 0.0000                 0.0000
 Atom AN      X      Y      Z        X      Y      Z        X      Y      Z
   1   8     0.04  -0.04  -0.35     0.04  -0.06  -0.01    -0.07   0.01   0.05
   2   6    -0.04  -0.04  -0.13    -0.01  -0.03  -0.05     0.05  -0.00  -0.05
   3   1    -0.02   0.02  -0.05    -0.01  -0.00  -0.02     0.01  -0.02  -0.04
   4   1     0.00  -0.06  -0.03     0.00  -0.00  -0.02     0.05   0.01  -0.02
   5   6    -0.11   0.05   0.06    -0.04  -0.07  -0.05     0.03   0.01  -0.01
   6   1    -0.08   0.03   0.01    -0.02  -0.03  -0.01     0.00   0.01  -0.00
   7   1    -0.02   0.03   0.06    -0.01  -0.01  -0.00     0.01  -0.01   0.00
   8   7    -0.01   0.03   0.09    -0.03  -0.08  -0.13     0.01   0.01   0.04
   9   6    -0.01  -0.03   0.07     0.01  -0.13  -0.08    -0.00   0.06   0.03
  10   1     0.00  -0.05   0.03     0.03  -0.09  -0.02    -0.00   0.02   0.01
  11   1    -0.02   0.00  -0.02    -0.02  -0.03  -0.07    -0.01   0.02   0.01
  12   1     0.01   0.02   0.04     0.01  -0.01   0.02     0.00   0.02   0.00
  13   6     0.04   0.11   0.10     0.01  -0.07  -0.18    -0.01   0.00   0.08
  14   1     0.01   0.04   0.02     0.02  -0.02  -0.05    -0.00   0.01   0.02
  15   1     0.01   0.04   0.02    -0.00  -0.01  -0.06    -0.00  -0.01   0.02
  16   1     0.03   0.03   0.04     0.01  -0.02  -0.05    -0.01   0.00   0.03
  17   6     0.05  -0.03   0.10    -0.07   0.01  -0.14     0.03  -0.03   0.06
  18   1     0.00   0.02   0.03    -0.04   0.03  -0.05     0.02  -0.03   0.02
  19   1    -0.00  -0.05   0.03    -0.03  -0.01  -0.02     0.02   0.00   0.00
  20   1     0.06  -0.01   0.03    -0.00   0.00  -0.06    -0.01  -0.01   0.03
  21   1     0.01   0.03  -0.10     0.00  -0.02  -0.00    -0.03  -0.01   0.02
  22   6     0.02  -0.14   0.00     0.03  -0.05   0.17     0.02   0.04  -0.10
  23   8    -0.09  -0.10  -0.19     0.19  -0.05   0.46     0.01  -0.04  -0.12
  24   7     0.18  -0.22   0.01    -0.20  -0.05   0.04    -0.00   0.10  -0.04
  25   1     0.07  -0.06  -0.06    -0.07  -0.01   0.07    -0.01   0.02  -0.01
  26   1     0.08  -0.09   0.05    -0.08   0.01  -0.03     0.01   0.04  -0.00
  27   7     0.02  -0.14   0.20     0.02  -0.05  -0.00     0.06   0.06  -0.17
  28   1     0.01  -0.04   0.07     0.00   0.01  -0.00     0.03   0.04  -0.02
  29   1    -0.02  -0.03   0.06     0.04  -0.01   0.02     0.02   0.01  -0.05
  30   6    -0.05  -0.01  -0.01    -0.03  -0.04  -0.05    -0.02  -0.20   0.14
  31   8    -0.05   0.01  -0.09    -0.03   0.01  -0.22    -0.01  -0.16  -0.07
  32   7    -0.10  -0.09  -0.01    -0.01  -0.21  -0.02     0.09  -0.41   0.21
  33   1    -0.01  -0.03  -0.01     0.00  -0.06  -0.01     0.03  -0.13   0.04
  34   1    -0.02  -0.03   0.01    -0.01  -0.06   0.02     0.00  -0.12   0.07
  35   7    -0.01   0.03   0.07    -0.04   0.06   0.09    -0.12  -0.10   0.30
  36   1     0.01   0.00   0.03    -0.01   0.00   0.05    -0.03  -0.04   0.12
  37   1    -0.02   0.02   0.01    -0.02   0.04   0.01    -0.06   0.01   0.06
  38   6    -0.04   0.04   0.03    -0.01   0.07   0.08     0.01   0.21  -0.14
  39   8    -0.12   0.06   0.12    -0.12   0.06   0.29    -0.14   0.37  -0.15
  40   7     0.03   0.10   0.02     0.10   0.25   0.06     0.04   0.18  -0.12
  41   1     0.01   0.03   0.01     0.04   0.07   0.02     0.01   0.04  -0.05
  42   1     0.03   0.01  -0.01     0.06   0.05  -0.01     0.06  -0.01  -0.03
  43   7    -0.02  -0.06  -0.05    -0.04  -0.09  -0.11     0.16   0.15  -0.10
  44   1     0.00  -0.01  -0.03     0.00  -0.01  -0.08     0.06   0.01  -0.02
  45   1    -0.03  -0.02  -0.01    -0.05  -0.06  -0.02     0.02   0.07  -0.03
  46   6     0.02   0.13  -0.02     0.06   0.12  -0.02    -0.03  -0.05   0.03
  47   8     0.01   0.38  -0.13     0.08   0.07   0.01    -0.04  -0.06   0.06
  48   7    -0.17  -0.01   0.04     0.14   0.16  -0.08    -0.03  -0.05   0.04
  49   1    -0.07   0.00  -0.02     0.04   0.05   0.02    -0.00  -0.02  -0.00
  50   1    -0.04  -0.05   0.02     0.03   0.06  -0.01    -0.00  -0.01  -0.01
  51   7     0.33   0.03   0.06    -0.02   0.17  -0.00    -0.04  -0.06  -0.00
  52   1     0.09  -0.05   0.06    -0.00   0.05  -0.03    -0.01  -0.01  -0.00
  53   1     0.14   0.06   0.03    -0.01   0.03  -0.01    -0.02  -0.02   0.00
                     22                     23                     24
                        a                      a                      a 
 Frequencies --   161.8198               178.4002               191.2877
 Red. masses --     8.9339                13.2496                12.8757
 Frc consts  --     0.0000                 0.0000                 0.0000
 IR Inten    --    13.7798                10.8698                27.3427
 Raman Activ --     0.0000                 0.0000                 0.0000
 Depolar     --     0.0000                 0.0000                 0.0000
 Atom AN      X      Y      Z        X      Y      Z        X      Y      Z
   1   8     0.31   0.06  -0.10     0.10  -0.02  -0.05    -0.16   0.05   0.09
   2   6    -0.25   0.12   0.40    -0.06   0.02  -0.00     0.02  -0.01   0.16
   3   1    -0.02   0.13   0.28    -0.01   0.03   0.02     0.02  -0.02   0.07
   4   1    -0.25  -0.03   0.12    -0.04  -0.00   0.00    -0.01  -0.01   0.05
   5   6    -0.10   0.05   0.08    -0.07  -0.01  -0.02     0.12   0.03   0.08
   6   1     0.04  -0.01   0.03    -0.02  -0.00  -0.01     0.06   0.00   0.02
   7   1    -0.06   0.03  -0.05    -0.02   0.01  -0.01     0.02  -0.00  -0.00
   8   7    -0.06   0.04   0.06    -0.02  -0.02  -0.03     0.05   0.04   0.08
   9   6    -0.01  -0.07   0.06    -0.02  -0.06  -0.03    -0.00   0.11   0.03
  10   1    -0.06   0.16  -0.00    -0.01  -0.03  -0.01    -0.02   0.08   0.00
  11   1     0.14  -0.08   0.15    -0.00  -0.02  -0.02     0.02   0.02   0.05
  12   1    -0.08  -0.17  -0.11    -0.01  -0.02  -0.00    -0.01   0.00  -0.03
  13   6     0.02   0.11  -0.00     0.02   0.05  -0.02    -0.05  -0.10   0.08
  14   1    -0.02   0.01   0.02     0.01   0.03  -0.01    -0.02  -0.06   0.04
  15   1     0.01   0.09   0.01    -0.00   0.01  -0.02    -0.00  -0.03   0.04
  16   1     0.05   0.02  -0.04     0.02   0.01   0.01    -0.04  -0.03  -0.01
  17   6    -0.08   0.06   0.05     0.00  -0.03  -0.02     0.06   0.09   0.06
  18   1    -0.04   0.03   0.01    -0.01   0.01  -0.01     0.04  -0.00   0.03
  19   1    -0.03   0.01   0.03    -0.01  -0.03  -0.00     0.04   0.06   0.00
  20   1    -0.02   0.02   0.01     0.02  -0.01  -0.01    -0.02   0.03   0.01
  21   1     0.10   0.07  -0.04     0.01   0.00  -0.01    -0.02   0.02   0.02
  22   6    -0.04  -0.01  -0.02     0.20   0.21  -0.05     0.12  -0.12  -0.10
  23   8    -0.06   0.01  -0.06     0.33   0.25   0.10     0.04  -0.45  -0.22
  24   7    -0.00  -0.02  -0.02     0.17   0.15  -0.22    -0.09   0.10   0.05
  25   1     0.00  -0.01  -0.02     0.05   0.04  -0.05    -0.09  -0.03   0.01
  26   1     0.00  -0.01   0.00     0.02   0.01  -0.08    -0.02   0.09   0.00
  27   7    -0.06  -0.02  -0.01     0.18   0.19  -0.08     0.40   0.07  -0.10
  28   1    -0.01  -0.01   0.01     0.05   0.04  -0.02     0.12   0.08  -0.01
  29   1    -0.02  -0.01  -0.00     0.04   0.06  -0.01     0.11  -0.01  -0.07
  30   6     0.06  -0.11  -0.05     0.01   0.03  -0.05     0.01   0.05  -0.07
  31   8     0.14  -0.14  -0.02     0.03   0.04  -0.05     0.05   0.06  -0.08
  32   7    -0.01  -0.11  -0.08    -0.02   0.02  -0.06    -0.02   0.01  -0.07
  33   1     0.01  -0.02  -0.01    -0.02   0.01  -0.02    -0.02  -0.00  -0.03
  34   1    -0.02  -0.03  -0.03    -0.02   0.01  -0.01    -0.04   0.00  -0.02
  35   7     0.05  -0.13  -0.06     0.03   0.05  -0.03     0.05   0.08  -0.04
  36   1    -0.03  -0.03  -0.03     0.01   0.01  -0.00    -0.00   0.02  -0.00
  37   1     0.00  -0.03  -0.02     0.01   0.02  -0.01     0.04   0.03  -0.00
  38   6     0.06   0.06  -0.02    -0.11  -0.02   0.09    -0.12  -0.03   0.09
  39   8     0.09  -0.01   0.10    -0.25   0.04   0.16    -0.26   0.03   0.14
  40   7     0.05   0.21  -0.03     0.01  -0.00   0.08    -0.01  -0.04   0.08
  41   1     0.04   0.04  -0.00    -0.00   0.01   0.03    -0.01  -0.01   0.03
  42   1     0.03   0.05  -0.02     0.03  -0.02   0.00     0.02  -0.03   0.01
  43   7     0.01   0.00  -0.13    -0.07  -0.16  -0.00    -0.09  -0.16   0.01
  44   1    -0.01   0.03  -0.06    -0.00  -0.04  -0.03    -0.00  -0.05  -0.03
  45   1    -0.01  -0.02  -0.03    -0.06  -0.05  -0.00    -0.07  -0.05   0.00
  46   6    -0.01  -0.04  -0.04    -0.11  -0.17   0.08    -0.01   0.05  -0.07
  47   8     0.01  -0.09  -0.09    -0.18  -0.01   0.12     0.03  -0.02  -0.18
  48   7     0.01  -0.01  -0.03    -0.22  -0.25   0.08    -0.01   0.08   0.00
  49   1     0.01  -0.00  -0.01    -0.06  -0.07   0.01     0.02   0.01  -0.03
  50   1    -0.00   0.01   0.00    -0.04  -0.09  -0.02    -0.01   0.02   0.01
  51   7    -0.08  -0.01  -0.01     0.05  -0.26   0.04    -0.09   0.08  -0.03
  52   1    -0.02   0.01   0.00     0.02  -0.10   0.04    -0.04   0.05   0.04
  53   1    -0.03  -0.01  -0.01     0.03  -0.04   0.05    -0.04   0.01  -0.00
                     25                     26                     27
                        a                      a                      a 
 Frequencies --   194.2329               212.1710               228.9039
 Red. masses --    12.3627                11.9058                 3.7951
 Frc consts  --     0.0000                 0.0000                 0.0000
 IR Inten    --    27.0730                61.3165                 8.7082
 Raman Activ --     0.0000                 0.0000                 0.0000
 Depolar     --     0.0000                 0.0000                 0.0000
 Atom AN      X      Y      Z        X      Y      Z        X      Y      Z
   1   8     0.15  -0.02  -0.05    -0.21   0.01   0.08     0.04   0.04   0.01
   2   6    -0.10   0.04  -0.06    -0.00  -0.05   0.24    -0.21   0.07   0.18
   3   1    -0.03   0.05  -0.01     0.03  -0.03   0.13    -0.02   0.06   0.17
   4   1    -0.04   0.01  -0.02    -0.06  -0.03   0.07    -0.20   0.01   0.05
   5   6    -0.15   0.00  -0.03     0.19  -0.02   0.05     0.03   0.00  -0.21
   6   1    -0.06   0.01  -0.01     0.11  -0.02   0.01     0.12   0.00  -0.07
   7   1    -0.04   0.01  -0.00     0.03  -0.02  -0.04    -0.04  -0.01  -0.17
   8   7    -0.04  -0.02   0.01     0.06   0.00   0.01     0.01   0.01  -0.04
   9   6    -0.00  -0.10   0.03     0.01   0.09  -0.03    -0.05   0.11  -0.05
  10   1    -0.01   0.00   0.00     0.01   0.00  -0.00     0.11  -0.36   0.03
  11   1     0.03  -0.04   0.03    -0.02   0.04  -0.02    -0.28   0.15  -0.33
  12   1    -0.02  -0.06  -0.01     0.02   0.05   0.00     0.13   0.32   0.26
  13   6     0.07   0.15   0.02    -0.09  -0.23  -0.00    -0.05   0.05   0.13
  14   1     0.00   0.05   0.00    -0.00  -0.08  -0.00     0.02   0.09  -0.00
  15   1     0.01   0.08   0.00    -0.02  -0.12   0.00    -0.02  -0.08   0.01
  16   1     0.07   0.03   0.01    -0.09  -0.05  -0.01    -0.06   0.03   0.14
  17   6    -0.02  -0.12   0.04     0.03   0.15  -0.04     0.14  -0.16   0.00
  18   1    -0.01  -0.04   0.01     0.02   0.04  -0.00     0.01   0.01  -0.01
  19   1    -0.01  -0.05   0.01     0.02   0.07  -0.00     0.00  -0.13  -0.00
  20   1     0.01  -0.04   0.03    -0.01   0.04  -0.04     0.13  -0.05   0.02
  21   1     0.00  -0.01  -0.01     0.00   0.02   0.01     0.04   0.02  -0.01
  22   6    -0.04  -0.02  -0.03    -0.03   0.05   0.06    -0.01  -0.02  -0.01
  23   8    -0.08  -0.07  -0.07     0.02   0.23   0.15    -0.03  -0.05  -0.04
  24   7    -0.04   0.01   0.04     0.08  -0.10  -0.07    -0.02   0.01   0.03
  25   1    -0.01   0.00   0.01     0.06   0.01  -0.02    -0.00   0.01   0.02
  26   1     0.00   0.02   0.03     0.02  -0.07  -0.01     0.00   0.02   0.01
  27   7    -0.02  -0.02  -0.06    -0.16  -0.03   0.09     0.02   0.00   0.00
  28   1     0.00   0.01   0.00    -0.05  -0.04   0.01     0.01   0.00  -0.00
  29   1     0.00  -0.00  -0.01    -0.07  -0.01   0.02     0.00  -0.01  -0.01
  30   6     0.11   0.08  -0.11     0.06   0.02  -0.07     0.02  -0.01  -0.01
  31   8     0.32   0.18  -0.31     0.17   0.07  -0.20     0.05  -0.03   0.01
  32   7     0.06  -0.20  -0.08     0.07  -0.18  -0.03    -0.00  -0.02  -0.03
  33   1     0.03  -0.09  -0.06     0.01  -0.07  -0.03     0.01  -0.01  -0.01
  34   1    -0.04  -0.07   0.02    -0.05  -0.06   0.01     0.00  -0.01  -0.01
  35   7    -0.09   0.33   0.11    -0.08   0.18   0.08     0.02  -0.04  -0.03
  36   1    -0.06   0.06   0.09    -0.01   0.02   0.08    -0.03  -0.00  -0.02
  37   1    -0.00   0.16   0.03     0.05   0.09   0.04    -0.00  -0.01  -0.01
  38   6    -0.05  -0.08   0.05    -0.00  -0.02   0.01     0.02   0.01  -0.00
  39   8    -0.05  -0.01  -0.13     0.02   0.01  -0.07     0.03  -0.01   0.02
  40   7    -0.12  -0.25   0.06    -0.04  -0.08   0.01     0.02   0.03  -0.01
  41   1    -0.03  -0.09   0.00    -0.01  -0.03  -0.01     0.01   0.01   0.00
  42   1    -0.04  -0.07   0.04    -0.01  -0.02   0.01     0.01   0.01  -0.00
  43   7     0.01   0.05   0.26     0.04   0.06   0.12    -0.01   0.00  -0.03
  44   1     0.02  -0.04   0.12     0.01  -0.00   0.06     0.01  -0.00  -0.02
  45   1     0.05   0.05   0.06     0.04   0.04   0.03    -0.00  -0.01  -0.01
  46   6     0.02   0.01   0.07    -0.03  -0.02  -0.13     0.00   0.00   0.02
  47   8     0.01  -0.04   0.23     0.01   0.04  -0.40    -0.00  -0.02   0.07
  48   7     0.11   0.05   0.01    -0.17  -0.08  -0.02     0.03   0.01  -0.01
  49   1     0.04   0.01   0.01    -0.07  -0.01  -0.00     0.01   0.00   0.00
  50   1     0.04   0.02  -0.03    -0.07  -0.02   0.07     0.01   0.00  -0.01
  51   7    -0.05   0.03  -0.04     0.07  -0.03   0.10    -0.03   0.01  -0.03
  52   1    -0.01   0.02  -0.06     0.03  -0.05   0.04    -0.01   0.02   0.00
  53   1    -0.04  -0.01   0.00     0.08  -0.01  -0.05    -0.02   0.00   0.02
                     28                     29                     30
                        a                      a                      a 
 Frequencies --   253.0296               262.9613               279.8007
 Red. masses --     7.9904                 4.8475                 3.7527
 Frc consts  --     0.0000                 0.0000                 0.0000
 IR Inten    --    51.1122               138.8060                10.6131
 Raman Activ --     0.0000                 0.0000                 0.0000
 Depolar     --     0.0000                 0.0000                 0.0000
 Atom AN      X      Y      Z        X      Y      Z        X      Y      Z
   1   8     0.14   0.10   0.39     0.09   0.09   0.24    -0.07  -0.02  -0.31
   2   6     0.03   0.16  -0.03     0.04   0.12  -0.01    -0.10  -0.05   0.04
   3   1    -0.01   0.04  -0.07    -0.01   0.03  -0.05    -0.02   0.01   0.05
   4   1     0.06   0.11  -0.02     0.05   0.07  -0.01    -0.06  -0.06   0.02
   5   6    -0.12  -0.01  -0.04    -0.08  -0.01  -0.00    -0.02   0.03   0.07
   6   1    -0.05  -0.02  -0.01    -0.04  -0.01   0.00    -0.01   0.00   0.02
   7   1    -0.03  -0.00   0.01    -0.02   0.00   0.02    -0.01   0.03   0.02
   8   7    -0.05  -0.05  -0.02    -0.04  -0.04  -0.01     0.03   0.02   0.03
   9   6    -0.02  -0.13  -0.00    -0.01  -0.11  -0.00     0.04   0.00   0.04
  10   1     0.01  -0.10   0.01     0.01  -0.09   0.01     0.05  -0.11   0.02
  11   1    -0.03  -0.02  -0.05    -0.03  -0.02  -0.05    -0.06   0.03  -0.07
  12   1     0.00  -0.00   0.04     0.01   0.00   0.04     0.04   0.07   0.09
  13   6     0.08   0.17   0.00     0.06   0.09  -0.02    -0.00  -0.11  -0.07
  14   1    -0.00   0.06   0.00    -0.01   0.01   0.01    -0.05  -0.12   0.03
  15   1     0.02   0.10   0.00     0.02   0.09   0.01     0.03   0.06   0.03
  16   1     0.08   0.03  -0.00     0.07   0.01  -0.04     0.02  -0.04  -0.15
  17   6    -0.02  -0.20   0.04    -0.02  -0.14   0.03     0.06   0.10  -0.00
  18   1     0.06  -0.20   0.03     0.09  -0.22   0.05     0.25  -0.36   0.12
  19   1     0.06   0.04  -0.06     0.09   0.10  -0.07     0.26   0.39  -0.17
  20   1    -0.14  -0.05   0.07    -0.20  -0.03   0.06    -0.44   0.06   0.05
  21   1     0.00  -0.03   0.11     0.06  -0.02   0.07    -0.02   0.05  -0.09
  22   6     0.02  -0.02  -0.01    -0.01  -0.00   0.02     0.00   0.02   0.00
  23   8     0.01  -0.03  -0.02    -0.00   0.02   0.03     0.01   0.02   0.01
  24   7     0.02  -0.01  -0.00     0.01  -0.03  -0.01     0.00   0.01  -0.01
  25   1     0.00  -0.01  -0.01     0.01  -0.00  -0.00     0.01   0.01   0.01
  26   1     0.00  -0.00  -0.00     0.00  -0.01  -0.00     0.00   0.00   0.00
  27   7     0.04   0.00   0.01    -0.02  -0.00   0.04    -0.02   0.00  -0.01
  28   1     0.01   0.00  -0.00    -0.01  -0.01  -0.01    -0.00  -0.00   0.00
  29   1     0.00  -0.00  -0.01    -0.02  -0.01  -0.01     0.00   0.01   0.01
  30   6    -0.01  -0.00  -0.00    -0.01  -0.00  -0.01     0.01  -0.00   0.00
  31   8    -0.03  -0.01   0.01    -0.03  -0.00  -0.01     0.02  -0.00   0.00
  32   7     0.00   0.02  -0.00     0.04  -0.02   0.01    -0.02   0.01  -0.01
  33   1    -0.01   0.01   0.00    -0.02  -0.00  -0.00     0.02  -0.00   0.00
  34   1    -0.01   0.01  -0.01    -0.06   0.00  -0.01     0.05  -0.00   0.01
  35   7    -0.01  -0.01  -0.01    -0.04   0.02  -0.01     0.04  -0.02   0.00
  36   1     0.02  -0.01   0.01     0.04  -0.01   0.03    -0.05   0.01  -0.02
  37   1     0.02  -0.01   0.01     0.08   0.00   0.04    -0.06   0.00  -0.03
  38   6    -0.01   0.00   0.00     0.00   0.00  -0.00     0.00  -0.00  -0.00
  39   8    -0.02   0.01   0.01     0.01   0.00  -0.00     0.01  -0.00   0.00
  40   7     0.01   0.00   0.00     0.00   0.00  -0.00     0.00   0.00  -0.00
  41   1    -0.00   0.00   0.00    -0.00   0.00  -0.00    -0.00   0.00   0.00
  42   1     0.00   0.00  -0.00     0.00  -0.00   0.00    -0.00   0.00  -0.00
  43   7    -0.00  -0.01  -0.01     0.00   0.01   0.00    -0.00   0.00  -0.01
  44   1    -0.01   0.00  -0.01     0.00   0.00   0.00     0.01  -0.01  -0.00
  45   1    -0.01  -0.00  -0.00     0.00   0.00   0.00     0.00  -0.01  -0.00
  46   6    -0.00   0.00  -0.15     0.00   0.02  -0.05    -0.00  -0.01   0.06
  47   8     0.02   0.01  -0.29     0.04  -0.01  -0.24    -0.02  -0.00   0.18
  48   7    -0.11  -0.02  -0.01    -0.07   0.00  -0.00     0.06   0.01   0.01
  49   1    -0.06   0.01   0.02    -0.01  -0.02  -0.07     0.02   0.00   0.02
  50   1    -0.08   0.02   0.14     0.02  -0.04  -0.09     0.02   0.01  -0.00
  51   7    -0.03   0.09   0.25     0.05  -0.06  -0.24    -0.01  -0.00   0.03
  52   1     0.10  -0.13  -0.37    -0.13   0.17   0.57     0.03  -0.03  -0.13
  53   1     0.12  -0.09  -0.33    -0.09   0.12   0.33     0.00  -0.02  -0.04
                     31                     32                     33
                        a                      a                      a 
 Frequencies --   310.7462               334.2609               338.5795
 Red. masses --     2.4413                 2.6189                 2.4875
 Frc consts  --     0.0000                 0.0000                 0.0000
 IR Inten    --   119.6897                 1.3065                12.5446
 Raman Activ --     0.0000                 0.0000                 0.0000
 Depolar     --     0.0000                 0.0000                 0.0000
 Atom AN      X      Y      Z        X      Y      Z        X      Y      Z
   1   8    -0.00   0.01  -0.00     0.03  -0.18   0.03    -0.04   0.07   0.04
   2   6    -0.00   0.01   0.00     0.01  -0.13  -0.02     0.08   0.04   0.02
   3   1    -0.00   0.00   0.00     0.01  -0.04   0.00     0.03  -0.01   0.00
   4   1    -0.00   0.00   0.00    -0.01  -0.03  -0.01     0.03   0.01   0.00
   5   6    -0.00   0.00   0.00     0.09  -0.05  -0.09     0.08  -0.02  -0.03
   6   1    -0.00  -0.00   0.00     0.08   0.01  -0.03     0.05  -0.00  -0.01
   7   1    -0.00   0.00   0.00     0.00  -0.03  -0.08     0.02  -0.03  -0.03
   8   7    -0.00  -0.00  -0.00    -0.01   0.01   0.03    -0.01  -0.02   0.01
   9   6     0.00  -0.00   0.00    -0.07   0.08  -0.03    -0.03  -0.06  -0.04
  10   1     0.01  -0.01   0.00    -0.02  -0.06   0.01    -0.02  -0.05  -0.00
  11   1    -0.01   0.00  -0.01    -0.08   0.05  -0.08    -0.01  -0.01  -0.04
  12   1     0.01   0.01   0.00     0.02   0.09   0.03    -0.00  -0.00  -0.00
  13   6    -0.00  -0.01  -0.00     0.01   0.11   0.08     0.00   0.01   0.04
  14   1     0.00   0.00  -0.00    -0.29  -0.24   0.20    -0.12  -0.11   0.08
  15   1    -0.00  -0.01  -0.00     0.13   0.44   0.27     0.05   0.17   0.12
  16   1    -0.00  -0.00   0.01     0.21  -0.05  -0.40     0.09  -0.03  -0.17
  17   6    -0.00  -0.01   0.00    -0.09   0.10   0.01    -0.07  -0.05   0.03
  18   1     0.00  -0.00   0.00    -0.08   0.11  -0.03    -0.06   0.03  -0.02
  19   1     0.00   0.00  -0.00    -0.07  -0.02   0.06    -0.06  -0.06   0.05
  20   1    -0.00  -0.00   0.00     0.04   0.02  -0.04     0.04  -0.02   0.01
  21   1    -0.00   0.00  -0.00     0.03  -0.06   0.01    -0.08   0.03   0.01
  22   6    -0.00  -0.00   0.01     0.00   0.01   0.00    -0.00   0.01   0.00
  23   8    -0.01   0.00  -0.00     0.01   0.01   0.00    -0.00   0.02   0.01
  24   7     0.01   0.02   0.02     0.02  -0.01  -0.01     0.01  -0.00  -0.01
  25   1    -0.01  -0.01  -0.01     0.02   0.01   0.00     0.01   0.00  -0.01
  26   1    -0.02  -0.02  -0.02     0.01  -0.01  -0.00    -0.00  -0.01  -0.00
  27   7    -0.01  -0.00  -0.01     0.01   0.01  -0.01    -0.01   0.01   0.00
  28   1     0.01   0.00   0.01     0.00   0.01  -0.00    -0.00  -0.01   0.01
  29   1     0.00   0.00   0.00     0.00   0.00  -0.00    -0.01  -0.01  -0.01
  30   6     0.00   0.01  -0.00    -0.02  -0.00   0.00     0.05   0.01   0.01
  31   8    -0.00   0.01  -0.01    -0.02  -0.01   0.01     0.05   0.03  -0.04
  32   7    -0.02   0.00  -0.00     0.06  -0.02   0.01    -0.15   0.02  -0.00
  33   1     0.02  -0.00  -0.00    -0.05   0.00  -0.00     0.14  -0.01   0.01
  34   1     0.06  -0.01   0.02    -0.20   0.02  -0.05     0.55  -0.05   0.13
  35   7     0.00   0.02   0.02    -0.07   0.03  -0.03     0.16  -0.06   0.07
  36   1    -0.04   0.01  -0.00     0.20  -0.04   0.06    -0.52   0.11  -0.16
  37   1    -0.02   0.02  -0.01     0.10  -0.02   0.05    -0.24   0.05  -0.11
  38   6    -0.02   0.00  -0.02     0.01  -0.00  -0.00    -0.03   0.01   0.00
  39   8     0.01  -0.01  -0.06     0.01  -0.00  -0.00    -0.04   0.01   0.00
  40   7    -0.01   0.04   0.02    -0.00   0.01   0.00     0.01  -0.03   0.00
  41   1     0.06  -0.04  -0.02     0.00  -0.00  -0.00    -0.01   0.01   0.01
  42   1     0.23  -0.23  -0.02     0.02  -0.02  -0.00    -0.04   0.04   0.00
  43   7     0.19  -0.25   0.06     0.00  -0.00  -0.00    -0.00  -0.01   0.00
  44   1    -0.55   0.56   0.02    -0.02   0.03  -0.00     0.04  -0.04   0.00
  45   1    -0.25   0.29  -0.05    -0.01   0.01  -0.00     0.00  -0.01   0.00
  46   6     0.00   0.00   0.00     0.00  -0.00   0.01    -0.00   0.00  -0.03
  47   8     0.00  -0.00   0.00    -0.00   0.00   0.02     0.01   0.00  -0.07
  48   7     0.00   0.00  -0.00    -0.00   0.00   0.00    -0.03   0.00   0.01
  49   1     0.00   0.00   0.00     0.00  -0.00  -0.00    -0.00  -0.00  -0.01
  50   1     0.00  -0.00  -0.00     0.00  -0.00  -0.00    -0.00  -0.01  -0.01
  51   7    -0.00   0.00  -0.00    -0.01   0.00   0.01     0.02  -0.00  -0.00
  52   1    -0.00   0.00   0.01     0.01  -0.01  -0.03    -0.01   0.01   0.07
  53   1    -0.00   0.00   0.00     0.00  -0.01  -0.01     0.01   0.01   0.02
                     34                     35                     36
                        a                      a                      a 
 Frequencies --   354.6773               360.5406               374.0270
 Red. masses --     9.0075                 9.4710                 8.3077
 Frc consts  --     0.0000                 0.0000                 0.0000
 IR Inten    --     1.2876                 3.6751                 0.6310
 Raman Activ --     0.0000                 0.0000                 0.0000
 Depolar     --     0.0000                 0.0000                 0.0000
 Atom AN      X      Y      Z        X      Y      Z        X      Y      Z
   1   8     0.12  -0.30   0.16    -0.20   0.39  -0.22     0.07   0.20   0.04
   2   6    -0.15  -0.16   0.04     0.16   0.17   0.15    -0.16   0.23  -0.17
   3   1    -0.07   0.00  -0.04     0.05   0.04   0.04    -0.06   0.08  -0.07
   4   1    -0.00  -0.06   0.01     0.06  -0.02   0.05    -0.04   0.11  -0.06
   5   6    -0.22  -0.01   0.21     0.06   0.07   0.25    -0.22   0.04  -0.16
   6   1    -0.17  -0.04   0.08    -0.05  -0.05   0.10    -0.06   0.03  -0.05
   7   1    -0.04   0.10   0.15     0.05   0.03   0.14    -0.06   0.02  -0.05
   8   7     0.01   0.01  -0.06     0.02  -0.02  -0.04    -0.04  -0.06   0.02
   9   6    -0.04   0.52   0.02    -0.06   0.04  -0.13     0.19  -0.04   0.34
  10   1     0.02   0.21  -0.01    -0.05  -0.00  -0.03     0.15   0.04   0.07
  11   1    -0.12   0.17   0.09    -0.04   0.02  -0.05     0.07  -0.02   0.17
  12   1     0.05   0.21  -0.03     0.01   0.03  -0.06     0.02  -0.04   0.15
  13   6     0.09   0.01  -0.26     0.04  -0.14  -0.20    -0.19  -0.35  -0.01
  14   1     0.06  -0.04  -0.07    -0.02  -0.15  -0.01    -0.12  -0.25   0.07
  15   1    -0.00   0.05  -0.11     0.02   0.06  -0.03     0.00  -0.03   0.09
  16   1     0.05  -0.01  -0.11     0.04  -0.06  -0.19    -0.09  -0.11  -0.19
  17   6     0.17  -0.12  -0.04    -0.03  -0.44   0.10     0.29  -0.02  -0.05
  18   1     0.06  -0.02   0.01    -0.06  -0.12  -0.03     0.10   0.10   0.05
  19   1     0.05  -0.08  -0.06    -0.06  -0.25   0.02     0.07  -0.08  -0.06
  20   1     0.09  -0.04   0.02     0.09  -0.13   0.14     0.19  -0.01  -0.07
  21   1     0.01  -0.09   0.05    -0.01   0.14  -0.07     0.00   0.02   0.02
  22   6     0.01   0.00   0.01     0.01   0.01   0.01     0.00   0.02   0.01
  23   8     0.00   0.01   0.01     0.01   0.02   0.02     0.00   0.01   0.00
  24   7    -0.00   0.01  -0.00    -0.00   0.00  -0.01     0.00  -0.01  -0.02
  25   1    -0.01  -0.01  -0.02     0.00   0.01   0.01     0.01   0.01   0.01
  26   1    -0.01  -0.01  -0.01     0.00   0.00  -0.00    -0.00  -0.00  -0.01
  27   7    -0.02  -0.01  -0.01    -0.01   0.00   0.01    -0.02  -0.00  -0.00
  28   1     0.00  -0.00   0.01    -0.00  -0.00  -0.00    -0.00  -0.00  -0.00
  29   1     0.00   0.01   0.01    -0.00   0.00   0.01    -0.00   0.00   0.00
  30   6     0.01   0.00  -0.00    -0.01  -0.00  -0.00    -0.00  -0.01  -0.00
  31   8     0.02   0.00  -0.00    -0.00  -0.01   0.01    -0.01  -0.01   0.01
  32   7    -0.02  -0.01  -0.00     0.03  -0.00  -0.00     0.01   0.01  -0.01
  33   1     0.02  -0.01  -0.00    -0.03   0.01  -0.00    -0.00   0.01   0.00
  34   1     0.09  -0.01   0.02    -0.13   0.01  -0.03    -0.01   0.01  -0.01
  35   7     0.02  -0.02  -0.00    -0.01   0.01  -0.00     0.00  -0.00   0.00
  36   1    -0.10   0.02  -0.03     0.10  -0.02   0.03     0.01  -0.00   0.01
  37   1    -0.01   0.01  -0.01     0.01  -0.01   0.00    -0.00   0.01  -0.00
  38   6    -0.00   0.00   0.00     0.01  -0.00  -0.00     0.00  -0.00  -0.00
  39   8    -0.00   0.00   0.00     0.01  -0.00  -0.00     0.00  -0.00  -0.00
  40   7    -0.00  -0.00   0.00    -0.00   0.01  -0.00    -0.00   0.00   0.00
  41   1    -0.00  -0.00  -0.00     0.00  -0.00  -0.00    -0.00   0.00   0.00
  42   1     0.00  -0.00   0.00     0.01  -0.01  -0.00     0.00  -0.00   0.00
  43   7    -0.00   0.00  -0.00    -0.00   0.01   0.00    -0.00   0.00  -0.00
  44   1     0.01  -0.01  -0.00    -0.00   0.00   0.00     0.00   0.00  -0.00
  45   1     0.00  -0.00  -0.00     0.00   0.00   0.00    -0.00  -0.00  -0.00
  46   6     0.01   0.00  -0.03    -0.01  -0.01   0.03     0.01   0.00  -0.01
  47   8     0.01  -0.00  -0.05    -0.01  -0.00   0.06     0.01  -0.00  -0.01
  48   7    -0.02   0.00   0.01     0.03   0.00  -0.00    -0.01   0.00   0.01
  49   1    -0.01  -0.00  -0.01     0.01   0.00   0.01    -0.00  -0.01  -0.02
  50   1     0.00  -0.01  -0.01     0.00   0.01   0.01     0.01  -0.01  -0.03
  51   7     0.01   0.01   0.00    -0.01  -0.01   0.00    -0.00   0.01   0.01
  52   1    -0.00   0.01   0.03     0.01  -0.01  -0.05    -0.00   0.00   0.00
  53   1     0.00   0.00  -0.00    -0.01  -0.00   0.00     0.00  -0.00  -0.00
                     37                     38                     39
                        a                      a                      a 
 Frequencies --   421.8177               434.0413               446.8736
 Red. masses --     3.8859                 3.2634                 2.8899
 Frc consts  --     0.0000                 0.0000                 0.0000
 IR Inten    --   232.1048               163.6044               106.2761
 Raman Activ --     0.0000                 0.0000                 0.0000
 Depolar     --     0.0000                 0.0000                 0.0000
 Atom AN      X      Y      Z        X      Y      Z        X      Y      Z
   1   8    -0.01   0.02  -0.02    -0.00  -0.00   0.00    -0.01   0.02  -0.05
   2   6    -0.00   0.00   0.01    -0.01   0.00   0.00     0.01  -0.01  -0.00
   3   1     0.00  -0.00   0.01     0.00   0.00   0.01     0.00   0.00   0.01
   4   1    -0.01  -0.00   0.00    -0.00  -0.00   0.00    -0.00  -0.01   0.00
   5   6     0.01   0.01   0.01     0.00   0.01   0.01     0.01   0.00   0.01
   6   1     0.00  -0.00   0.00    -0.02  -0.00   0.01    -0.01  -0.00   0.00
   7   1     0.00   0.00  -0.00     0.00   0.01   0.01     0.01  -0.00   0.01
   8   7     0.00   0.01   0.01     0.04  -0.00  -0.02    -0.00   0.01  -0.01
   9   6    -0.00   0.00   0.00     0.03   0.00  -0.04     0.01  -0.01   0.01
  10   1    -0.00  -0.01   0.00     0.00  -0.00  -0.01     0.01  -0.01   0.00
  11   1    -0.00   0.00  -0.01     0.01   0.00  -0.02     0.00  -0.00   0.00
  12   1    -0.00   0.00   0.01     0.01   0.00  -0.01    -0.00  -0.00   0.01
  13   6     0.00  -0.00  -0.01     0.01  -0.00   0.04    -0.01   0.00   0.00
  14   1     0.00  -0.01  -0.00    -0.01   0.01   0.01    -0.01   0.00   0.00
  15   1    -0.00  -0.00  -0.01     0.01  -0.02   0.02     0.00  -0.00   0.00
  16   1    -0.00  -0.00  -0.01    -0.01   0.00   0.03    -0.01   0.00  -0.00
  17   6     0.01  -0.01   0.01    -0.05  -0.00  -0.01     0.00  -0.01  -0.01
  18   1     0.00  -0.00   0.00    -0.02  -0.01  -0.02     0.00  -0.01  -0.00
  19   1     0.00  -0.01  -0.00    -0.02   0.01   0.02     0.00  -0.00  -0.01
  20   1     0.00  -0.00   0.01    -0.02  -0.00   0.00    -0.00  -0.00   0.00
  21   1     0.06  -0.01  -0.01    -0.06   0.01   0.01     0.09  -0.02  -0.02
  22   6     0.01  -0.01   0.01    -0.00   0.01   0.03    -0.02   0.00   0.02
  23   8    -0.00   0.02  -0.01    -0.01   0.01   0.01    -0.01  -0.02   0.03
  24   7     0.00   0.04   0.03    -0.02  -0.04  -0.01     0.05   0.02   0.03
  25   1    -0.05  -0.05  -0.05     0.02   0.03   0.04    -0.04  -0.08  -0.12
  26   1    -0.04  -0.02  -0.04     0.02   0.01   0.02    -0.03  -0.07  -0.03
  27   7    -0.02  -0.02  -0.02    -0.01  -0.01  -0.01    -0.01   0.01  -0.04
  28   1     0.01  -0.00   0.03     0.01   0.02   0.03     0.01   0.03   0.02
  29   1     0.02   0.00   0.02     0.03   0.02   0.04     0.02   0.01   0.01
  30   6     0.13  -0.02   0.03    -0.03   0.01   0.00    -0.04  -0.03  -0.04
  31   8     0.09  -0.01   0.03    -0.00   0.01  -0.01    -0.10  -0.06   0.02
  32   7    -0.24  -0.01  -0.04     0.04   0.01   0.01     0.15   0.00   0.00
  33   1     0.08  -0.02  -0.00    -0.01   0.01   0.01    -0.05   0.01  -0.00
  34   1     0.51  -0.06   0.12    -0.16   0.02  -0.04    -0.12   0.02  -0.04
  35   7    -0.28   0.06  -0.09     0.08  -0.02   0.03     0.01  -0.01   0.01
  36   1     0.52  -0.10   0.12    -0.06   0.02  -0.03    -0.39   0.04   0.01
  37   1     0.06  -0.06   0.04    -0.12   0.00  -0.05     0.42   0.07   0.17
  38   6    -0.05   0.06   0.01     0.02  -0.02  -0.00    -0.05   0.07  -0.01
  39   8    -0.03   0.04   0.02     0.01  -0.02  -0.01    -0.04   0.03   0.03
  40   7     0.07  -0.10  -0.00    -0.03   0.04   0.00     0.13  -0.14  -0.04
  41   1    -0.02   0.01   0.02     0.01  -0.01  -0.01     0.02   0.01   0.03
  42   1    -0.23   0.22   0.02     0.09  -0.10  -0.01    -0.42   0.43   0.01
  43   7     0.07  -0.06  -0.02    -0.03   0.03   0.01     0.13  -0.08   0.00
  44   1    -0.03   0.04  -0.02     0.02  -0.02   0.01    -0.11   0.13   0.00
  45   1    -0.05   0.02  -0.01     0.02  -0.01   0.00    -0.03   0.06  -0.01
  46   6     0.04  -0.02  -0.03     0.07  -0.02  -0.13     0.05   0.00   0.02
  47   8     0.02  -0.01  -0.01     0.06  -0.04  -0.05     0.04   0.03   0.02
  48   7    -0.03   0.01   0.07    -0.16   0.04   0.25    -0.04  -0.05   0.04
  49   1     0.01  -0.01  -0.01     0.02  -0.03  -0.03    -0.03  -0.01  -0.01
  50   1     0.08  -0.05  -0.21     0.30  -0.20  -0.77     0.04  -0.07  -0.09
  51   7    -0.03   0.02   0.04    -0.04   0.09   0.15    -0.05   0.05  -0.00
  52   1    -0.01   0.02  -0.00     0.01   0.02  -0.06    -0.00   0.04  -0.10
  53   1    -0.00  -0.02  -0.04     0.01  -0.03  -0.09    -0.06  -0.02   0.02
                     40                     41                     42
                        a                      a                      a 
 Frequencies --   449.0230               455.4264               459.7315
 Red. masses --     2.6129                 7.9199                 4.6670
 Frc consts  --     0.0000                 0.0000                 0.0000
 IR Inten    --   376.6624                 2.6140                32.4371
 Raman Activ --     0.0000                 0.0000                 0.0000
 Depolar     --     0.0000                 0.0000                 0.0000
 Atom AN      X      Y      Z        X      Y      Z        X      Y      Z
   1   8    -0.01   0.03  -0.05     0.05  -0.00   0.03     0.03  -0.01   0.02
   2   6    -0.01  -0.00  -0.02    -0.17   0.06  -0.04    -0.07   0.02  -0.02
   3   1    -0.00   0.01  -0.00    -0.06   0.05  -0.03    -0.02   0.02  -0.01
   4   1    -0.01  -0.00  -0.00    -0.03   0.02  -0.01    -0.01   0.01  -0.01
   5   6    -0.01   0.02   0.01    -0.16   0.08   0.08    -0.06   0.04   0.02
   6   1    -0.01   0.00   0.00    -0.18  -0.02   0.04    -0.05   0.00   0.01
   7   1     0.00   0.01   0.01    -0.01   0.15   0.13    -0.01   0.05   0.03
   8   7     0.03   0.01   0.01     0.33  -0.04  -0.16     0.11  -0.00  -0.02
   9   6     0.01  -0.01  -0.03     0.30   0.08  -0.22     0.08   0.03  -0.09
  10   1    -0.01  -0.00  -0.00     0.07   0.01  -0.06     0.00   0.01  -0.02
  11   1     0.01  -0.00  -0.01     0.04   0.04  -0.06     0.01   0.01  -0.02
  12   1     0.00  -0.00  -0.02     0.11   0.05  -0.07     0.03   0.01  -0.04
  13   6     0.01  -0.03   0.01     0.03  -0.18   0.32     0.03  -0.07   0.09
  14   1     0.00  -0.02   0.01    -0.10  -0.03   0.11    -0.02  -0.02   0.03
  15   1     0.01  -0.02   0.01     0.10  -0.11   0.21     0.03  -0.04   0.05
  16   1    -0.01  -0.01  -0.00    -0.06  -0.03   0.09    -0.02  -0.01   0.02
  17   6    -0.02  -0.00   0.02    -0.27  -0.03  -0.07    -0.08  -0.00   0.01
  18   1    -0.01  -0.01  -0.01    -0.16  -0.06  -0.14    -0.05  -0.02  -0.04
  19   1    -0.01  -0.00   0.02    -0.12   0.04   0.12    -0.04   0.01   0.05
  20   1    -0.01  -0.00   0.01    -0.14  -0.00  -0.00    -0.04   0.00   0.01
  21   1     0.15  -0.03  -0.02    -0.00  -0.01   0.01     0.01  -0.01   0.01
  22   6     0.02  -0.01  -0.01    -0.03   0.03   0.02     0.10  -0.09  -0.06
  23   8     0.02   0.01  -0.02    -0.02  -0.04   0.05     0.05   0.13  -0.19
  24   7    -0.03  -0.02  -0.02     0.05   0.01   0.00    -0.09  -0.00   0.01
  25   1     0.03   0.06   0.10    -0.01  -0.08  -0.18     0.02   0.23   0.57
  26   1     0.01   0.05   0.01     0.07  -0.05   0.07    -0.29   0.09  -0.34
  27   7     0.02  -0.01   0.03    -0.01   0.04  -0.06     0.04  -0.13   0.15
  28   1    -0.02  -0.02  -0.03     0.00   0.03  -0.01     0.01  -0.06   0.05
  29   1     0.00  -0.00   0.01     0.03   0.02   0.00    -0.06  -0.05  -0.00
  30   6     0.00  -0.03  -0.03     0.00  -0.01  -0.00    -0.01   0.00  -0.01
  31   8    -0.08  -0.07   0.06     0.01  -0.01   0.00    -0.01  -0.00   0.00
  32   7     0.02   0.04  -0.04    -0.01   0.02  -0.01     0.01  -0.01   0.00
  33   1    -0.09  -0.00  -0.04     0.00   0.01   0.00     0.00  -0.00   0.00
  34   1     0.33  -0.03   0.07     0.01   0.01  -0.01    -0.02  -0.00  -0.00
  35   7    -0.17   0.05  -0.06    -0.00   0.01   0.01     0.00  -0.01  -0.01
  36   1    -0.19  -0.01   0.09     0.04  -0.01   0.01    -0.03   0.00  -0.00
  37   1     0.59   0.07   0.25    -0.05   0.01  -0.02     0.05   0.00   0.02
  38   6     0.06  -0.03   0.02     0.02   0.01   0.02    -0.07  -0.00  -0.04
  39   8     0.06   0.01  -0.02     0.03   0.02  -0.00    -0.06  -0.04   0.02
  40   7    -0.12   0.09   0.06    -0.03  -0.02   0.02     0.08   0.01  -0.06
  41   1    -0.04  -0.02  -0.03    -0.00  -0.02  -0.01     0.03   0.03   0.02
  42   1     0.31  -0.34   0.02    -0.01  -0.01   0.02    -0.08   0.12  -0.04
  43   7    -0.10   0.06  -0.05    -0.01  -0.01  -0.03     0.05   0.00   0.07
  44   1     0.10  -0.09  -0.05     0.02  -0.01  -0.04    -0.03   0.02   0.07
  45   1    -0.00  -0.07  -0.00    -0.04  -0.01  -0.01     0.04   0.06   0.01
  46   6     0.02   0.00   0.02     0.02   0.00   0.01    -0.10  -0.00  -0.03
  47   8     0.01   0.02   0.02     0.02   0.02   0.00    -0.10  -0.08  -0.01
  48   7    -0.02  -0.03   0.02     0.00  -0.04  -0.02     0.04   0.13  -0.02
  49   1    -0.01  -0.01  -0.00    -0.02  -0.01  -0.01     0.06   0.02   0.00
  50   1     0.02  -0.03  -0.05    -0.04  -0.00   0.10     0.01   0.09  -0.03
  51   7    -0.03   0.02   0.00    -0.02   0.01  -0.03     0.11  -0.08   0.05
  52   1     0.01   0.01  -0.09    -0.01   0.03   0.00     0.04  -0.11   0.05
  53   1    -0.04  -0.01   0.03    -0.03  -0.01   0.01     0.12   0.04   0.00
                     43                     44                     45
                        a                      a                      a 
 Frequencies --   469.9876               471.6810               473.8075
 Red. masses --     8.6819                 7.6545                 6.6479
 Frc consts  --     0.0000                 0.0000                 0.0000
 IR Inten    --    11.8730                41.0502                17.5997
 Raman Activ --     0.0000                 0.0000                 0.0000
 Depolar     --     0.0000                 0.0000                 0.0000
 Atom AN      X      Y      Z        X      Y      Z        X      Y      Z
   1   8     0.06  -0.02   0.06    -0.01  -0.01   0.00    -0.02  -0.01  -0.02
   2   6    -0.17   0.07  -0.17     0.03  -0.01   0.02     0.04  -0.03   0.04
   3   1    -0.05   0.04  -0.05     0.01  -0.00   0.00     0.01  -0.02   0.01
   4   1    -0.05   0.06  -0.05     0.01  -0.01   0.01     0.01  -0.02   0.01
   5   6    -0.06   0.09  -0.15     0.02  -0.02   0.01     0.02  -0.02   0.04
   6   1     0.04   0.11  -0.07     0.01  -0.01   0.01    -0.01  -0.02   0.02
   7   1    -0.05   0.01  -0.12     0.01  -0.01   0.00     0.01  -0.00   0.03
   8   7     0.16   0.02   0.32    -0.03  -0.00  -0.02    -0.04   0.00  -0.07
   9   6    -0.20  -0.02  -0.21    -0.00   0.01   0.03     0.04   0.01   0.05
  10   1    -0.23  -0.03  -0.02     0.01   0.01   0.00     0.05   0.01   0.00
  11   1    -0.05   0.00  -0.14    -0.00   0.00   0.02     0.02  -0.00   0.04
  12   1    -0.00   0.01  -0.19    -0.00  -0.00   0.02    -0.00  -0.01   0.04
  13   6     0.25  -0.27  -0.13    -0.02   0.04  -0.01    -0.06   0.07   0.02
  14   1     0.18  -0.15  -0.03    -0.01   0.02  -0.01    -0.04   0.04   0.00
  15   1     0.01  -0.08  -0.13    -0.01   0.01  -0.00    -0.00   0.02   0.02
  16   1     0.02  -0.07  -0.09     0.00   0.01   0.01    -0.01   0.02   0.02
  17   6     0.01   0.11   0.37     0.01  -0.01  -0.03    -0.00  -0.03  -0.08
  18   1    -0.03   0.04   0.07     0.01   0.00   0.00     0.01  -0.01  -0.01
  19   1    -0.01   0.04   0.15     0.01  -0.00  -0.02     0.00  -0.01  -0.04
  20   1    -0.00   0.03   0.08     0.01  -0.00  -0.01     0.00  -0.01  -0.02
  21   1    -0.01  -0.04   0.03    -0.04   0.01   0.00     0.02   0.01  -0.01
  22   6    -0.00   0.00  -0.01    -0.04  -0.02   0.01    -0.06  -0.01   0.03
  23   8     0.01   0.01   0.02    -0.05   0.04  -0.00    -0.08   0.03   0.00
  24   7    -0.00  -0.01  -0.00    -0.01  -0.08  -0.01     0.08  -0.15  -0.03
  25   1     0.02   0.03   0.04     0.07   0.09   0.14     0.16   0.18   0.30
  26   1     0.01   0.01   0.01    -0.01  -0.01  -0.02    -0.15  -0.10  -0.19
  27   7    -0.01   0.01   0.03     0.04   0.03  -0.01     0.07   0.07  -0.02
  28   1    -0.01  -0.01  -0.01     0.01   0.03  -0.01     0.03   0.09   0.03
  29   1    -0.01   0.00   0.00     0.01  -0.02  -0.03     0.04  -0.01  -0.04
  30   6     0.00  -0.03  -0.01     0.01  -0.10  -0.05     0.00   0.03   0.01
  31   8     0.01  -0.03  -0.01     0.01  -0.12  -0.01     0.02   0.04  -0.00
  32   7     0.01   0.04  -0.02     0.04   0.12  -0.09    -0.03  -0.03   0.02
  33   1     0.00   0.03   0.01     0.01   0.08   0.03     0.01  -0.02  -0.01
  34   1    -0.03   0.02  -0.03    -0.03   0.06  -0.10    -0.00  -0.02   0.02
  35   7     0.01   0.00   0.04    -0.02   0.07   0.17     0.02  -0.01  -0.02
  36   1     0.00  -0.00   0.02    -0.03  -0.01   0.12     0.06   0.00  -0.03
  37   1    -0.06   0.02  -0.02    -0.09   0.12  -0.01    -0.10  -0.03  -0.05
  38   6     0.01   0.02   0.01     0.14   0.15   0.15    -0.01  -0.00   0.01
  39   8     0.02   0.02  -0.00     0.22   0.23  -0.07     0.01  -0.00  -0.01
  40   7    -0.01  -0.03   0.02    -0.19  -0.22   0.22    -0.01   0.01   0.01
  41   1    -0.00  -0.02  -0.00    -0.07  -0.14  -0.03     0.01   0.00   0.00
  42   1    -0.04   0.02   0.02    -0.15  -0.02   0.18     0.01  -0.01  -0.00
  43   7     0.01  -0.02  -0.03    -0.01  -0.13  -0.26     0.00  -0.01   0.01
  44   1    -0.00   0.01  -0.03     0.11  -0.01  -0.32     0.04  -0.04  -0.01
  45   1    -0.03  -0.01  -0.01    -0.41  -0.04  -0.08    -0.08   0.05  -0.01
  46   6     0.08   0.01   0.02    -0.05   0.00  -0.01     0.23  -0.01   0.06
  47   8     0.08   0.05   0.01    -0.05  -0.04   0.00     0.22   0.19  -0.01
  48   7    -0.04  -0.11   0.01     0.03   0.06  -0.02    -0.11  -0.32   0.06
  49   1    -0.06  -0.02  -0.02     0.03   0.01   0.01    -0.15  -0.06  -0.05
  50   1    -0.01  -0.07   0.04     0.01   0.04  -0.02    -0.05  -0.20   0.14
  51   7    -0.07   0.06  -0.04     0.04  -0.03   0.02    -0.21   0.15  -0.11
  52   1    -0.03   0.09  -0.02     0.01  -0.04   0.07    -0.07   0.23  -0.20
  53   1    -0.07  -0.04  -0.02     0.07   0.01  -0.04    -0.29  -0.07   0.11
                     46                     47                     48
                        a                      a                      a 
 Frequencies --   484.6932               485.1186               496.8457
 Red. masses --     2.9842                 2.3444                 8.5622
 Frc consts  --     0.0000                 0.0000                 0.0000
 IR Inten    --     8.6820                 3.3566                40.5820
 Raman Activ --     0.0000                 0.0000                 0.0000
 Depolar     --     0.0000                 0.0000                 0.0000
 Atom AN      X      Y      Z        X      Y      Z        X      Y      Z
   1   8    -0.01  -0.01  -0.01     0.01  -0.01   0.04     0.01   0.01   0.01
   2   6     0.01  -0.01   0.01    -0.00   0.01  -0.00    -0.02   0.02  -0.03
   3   1     0.00  -0.00   0.00    -0.00   0.00  -0.01    -0.01   0.00  -0.01
   4   1     0.00  -0.01   0.01     0.00   0.01  -0.00    -0.01   0.01  -0.01
   5   6     0.01  -0.00   0.02    -0.01  -0.01  -0.01    -0.02   0.02  -0.01
   6   1    -0.00  -0.01   0.01    -0.00   0.00  -0.00    -0.01   0.01  -0.01
   7   1     0.00   0.00   0.01    -0.00  -0.00  -0.01    -0.00   0.01  -0.00
   8   7    -0.01   0.00  -0.03     0.01  -0.01   0.01     0.03   0.01   0.03
   9   6     0.02   0.01   0.01    -0.01   0.01  -0.00    -0.01  -0.01  -0.03
  10   1     0.01   0.01   0.00    -0.01   0.00  -0.00    -0.03   0.00  -0.00
  11   1     0.01   0.00   0.01    -0.01   0.00   0.00     0.01  -0.00  -0.01
  12   1    -0.00  -0.00   0.01     0.00   0.00  -0.01    -0.00  -0.01  -0.03
  13   6    -0.02   0.02   0.01     0.02  -0.00   0.00     0.03  -0.04  -0.02
  14   1    -0.01   0.01   0.00     0.01   0.00  -0.00     0.02  -0.02  -0.00
  15   1    -0.00   0.00   0.01     0.00  -0.00  -0.00     0.00  -0.02  -0.02
  16   1    -0.00   0.01   0.01     0.01  -0.00   0.00    -0.01  -0.01  -0.01
  17   6    -0.00  -0.01  -0.03     0.00   0.01   0.01     0.00   0.01   0.04
  18   1     0.00  -0.01  -0.01    -0.00   0.01   0.00    -0.00   0.00   0.00
  19   1    -0.00  -0.00  -0.01     0.00   0.01   0.01    -0.00   0.00   0.02
  20   1    -0.00  -0.00  -0.00    -0.00   0.00  -0.01    -0.00   0.00   0.01
  21   1    -0.01   0.00  -0.00    -0.01   0.00   0.01     0.01  -0.01   0.00
  22   6    -0.03  -0.00  -0.01     0.01  -0.00  -0.00    -0.15   0.02   0.04
  23   8    -0.02  -0.01   0.01     0.01   0.01   0.00    -0.14  -0.04   0.12
  24   7     0.01  -0.06  -0.03    -0.04   0.00  -0.01     0.06  -0.22  -0.06
  25   1     0.08   0.08   0.10    -0.01  -0.00  -0.01     0.22   0.15   0.10
  26   1     0.02   0.00   0.01     0.04   0.04   0.05     0.09  -0.09   0.09
  27   7     0.04   0.05   0.01    -0.01  -0.02   0.02     0.10   0.19  -0.12
  28   1    -0.01   0.01  -0.04    -0.01  -0.02  -0.01     0.04   0.15  -0.00
  29   1     0.01  -0.01  -0.03    -0.01  -0.01  -0.00     0.07  -0.01  -0.10
  30   6     0.02  -0.07  -0.03     0.01  -0.02  -0.00    -0.01   0.20   0.08
  31   8     0.02  -0.08  -0.02     0.02  -0.01  -0.01    -0.02   0.24   0.07
  32   7     0.01   0.09  -0.06    -0.01   0.02  -0.01    -0.04  -0.28   0.18
  33   1    -0.02   0.06   0.02     0.01   0.01   0.01     0.01  -0.19  -0.08
  34   1     0.03   0.04  -0.06     0.00   0.01  -0.02    -0.05  -0.14   0.21
  35   7    -0.03   0.03   0.10    -0.00   0.01   0.03     0.07  -0.07  -0.30
  36   1    -0.00  -0.02   0.08     0.04  -0.01   0.02     0.01   0.05  -0.23
[...]
  44   1     0.00   0.00  -0.00     0.00   0.00   0.00     0.00   0.00   0.00
  45   1    -0.00  -0.00  -0.00    -0.00  -0.00  -0.01     0.00  -0.00  -0.01
  46   6     0.02   0.01  -0.00    -0.01  -0.00  -0.00     0.01   0.00   0.00
  47   8    -0.01  -0.00  -0.00     0.01  -0.00   0.00    -0.01  -0.00   0.00
  48   7     0.01   0.04  -0.01    -0.01  -0.03   0.01     0.01   0.03  -0.01
  49   1    -0.06  -0.15   0.03     0.05   0.12  -0.03    -0.05  -0.11   0.03
  50   1     0.01   0.00   0.00    -0.02  -0.00  -0.00     0.01   0.00   0.00
  51   7    -0.00  -0.00  -0.00     0.00   0.00   0.00    -0.00  -0.00  -0.00
  52   1    -0.01  -0.00  -0.00     0.00   0.00   0.00    -0.01  -0.00  -0.00
  53   1     0.01  -0.01   0.00    -0.01   0.01  -0.00     0.01  -0.01   0.01
                    142                    143                    144
                        a                      a                      a 
 Frequencies --  3385.1965              3472.3605              3483.7180
 Red. masses --     2.0572                 1.4696                 1.4991
 Frc consts  --     0.0000                 0.0000                 0.0000
 IR Inten    --   785.4355                34.7500                43.7243
 Raman Activ --     0.0000                 0.0000                 0.0000
 Depolar     --     0.0000                 0.0000                 0.0000
 Atom AN      X      Y      Z        X      Y      Z        X      Y      Z
   1   8    -0.00  -0.00  -0.01     0.00   0.00   0.00     0.00  -0.00   0.00
   2   6     0.00   0.00   0.00    -0.00   0.00  -0.00    -0.00   0.00   0.00
   3   1    -0.00   0.00   0.00    -0.00   0.00   0.00     0.00   0.00  -0.00
   4   1     0.00  -0.00  -0.00     0.00   0.00   0.00    -0.00   0.00   0.00
   5   6     0.00  -0.00  -0.00     0.00   0.00   0.00     0.00   0.00   0.00
   6   1     0.00   0.00   0.00     0.00  -0.00  -0.00     0.00  -0.00  -0.00
   7   1    -0.00   0.00   0.00    -0.00  -0.00   0.00    -0.00   0.00   0.00
   8   7    -0.00  -0.00  -0.00     0.00   0.00   0.00     0.00  -0.00   0.00
   9   6    -0.00  -0.00  -0.00     0.00   0.00   0.00    -0.00   0.00  -0.00
  10   1     0.00   0.00   0.00    -0.00  -0.00  -0.00     0.00  -0.00   0.00
  11   1    -0.00  -0.00  -0.00    -0.00  -0.00   0.00    -0.00   0.00  -0.00
  12   1    -0.00   0.00  -0.00    -0.00   0.00   0.00     0.00  -0.00  -0.00
  13   6    -0.00  -0.00  -0.00     0.00   0.00   0.00     0.00   0.00   0.00
  14   1     0.00   0.00   0.00    -0.00  -0.00  -0.00    -0.00  -0.00  -0.00
  15   1    -0.00   0.00   0.00    -0.00  -0.00   0.00    -0.00   0.00   0.00
  16   1    -0.00  -0.00  -0.00     0.00   0.00   0.00    -0.00  -0.00   0.00
  17   6     0.00   0.00   0.00     0.00  -0.00  -0.00     0.00   0.00  -0.00
  18   1    -0.00   0.00   0.00    -0.00  -0.00   0.00    -0.00   0.00   0.00
  19   1     0.00   0.00  -0.00    -0.00   0.00  -0.00     0.00   0.00  -0.00
  20   1     0.00  -0.00   0.00     0.00  -0.00  -0.00     0.00  -0.00   0.00
  21   1     0.00   0.01   0.03    -0.00  -0.00  -0.00    -0.00  -0.00  -0.02
  22   6    -0.01   0.00   0.00     0.00   0.00  -0.01     0.00  -0.00  -0.00
  23   8     0.00  -0.00  -0.00    -0.00   0.00   0.00    -0.00   0.00   0.00
  24   7     0.01  -0.00  -0.01     0.06   0.08  -0.16     0.00   0.00  -0.00
  25   1     0.01  -0.01   0.00     0.38  -0.44   0.13     0.00  -0.00   0.00
  26   1    -0.05   0.01   0.04    -0.60   0.14   0.47    -0.00   0.00   0.00
  27   7    -0.23  -0.06   0.15     0.02  -0.00  -0.01    -0.00   0.00  -0.00
  28   1     0.80  -0.00  -0.39    -0.06  -0.00   0.03    -0.00  -0.00   0.00
  29   1     0.05   0.21  -0.16     0.00   0.00  -0.00     0.00  -0.00   0.00
  30   6     0.00   0.00   0.00    -0.00   0.00   0.00    -0.00  -0.00   0.00
  31   8    -0.00  -0.00   0.00     0.00  -0.00  -0.00    -0.00   0.00   0.00
  32   7    -0.01  -0.03   0.04     0.00   0.00  -0.00     0.00   0.01  -0.01
  33   1     0.02   0.15  -0.13    -0.00  -0.01   0.01    -0.00  -0.02   0.02
  34   1     0.00  -0.04  -0.01    -0.00   0.01   0.00    -0.00  -0.01  -0.00
  35   7    -0.00  -0.00   0.00     0.00   0.00  -0.00    -0.09  -0.09   0.14
  36   1     0.00   0.00   0.00    -0.00  -0.00  -0.00     0.04   0.48   0.22
  37   1     0.00  -0.00  -0.01    -0.00   0.00   0.00     0.32  -0.13  -0.75
  38   6    -0.01  -0.01  -0.01     0.00   0.00   0.00    -0.00  -0.00   0.00
  39   8     0.00   0.01   0.01    -0.00  -0.00  -0.00     0.00   0.00  -0.00
  40   7    -0.00  -0.01   0.01     0.00   0.00  -0.00    -0.00   0.00  -0.00
  41   1     0.02   0.04  -0.03    -0.00  -0.00   0.00    -0.00  -0.01   0.01
  42   1    -0.00  -0.01  -0.00     0.00   0.00   0.00     0.01   0.00   0.00
  43   7     0.00   0.00   0.00     0.00  -0.00  -0.00     0.00   0.00  -0.00
  44   1     0.01   0.01   0.00    -0.00  -0.00  -0.00    -0.00  -0.00  -0.00
  45   1     0.00  -0.01  -0.02     0.00   0.00   0.02     0.00   0.00   0.00
  46   6    -0.01  -0.00  -0.00     0.00   0.00   0.00     0.00   0.00  -0.00
  47   8     0.00   0.00  -0.00    -0.00  -0.00   0.00    -0.00   0.00   0.00
  48   7     0.00  -0.00   0.00     0.00  -0.00   0.00    -0.00  -0.00  -0.00
  49   1     0.00   0.00  -0.00     0.00   0.01  -0.00     0.00   0.00  -0.00
  50   1     0.00   0.00   0.00    -0.00  -0.00  -0.00     0.00   0.00   0.00
  51   7     0.00  -0.00   0.00    -0.00   0.00  -0.00    -0.00   0.00  -0.00
  52   1     0.00   0.00   0.00    -0.00  -0.00  -0.00    -0.00  -0.00  -0.00
  53   1    -0.01   0.01  -0.00     0.00  -0.00   0.00     0.00  -0.00   0.00
                    145                    146                    147
                        a                      a                      a 
 Frequencies --  3493.3032              3500.3434              3527.3478
 Red. masses --     1.4514                 1.4494                 1.8867
 Frc consts  --     0.0000                 0.0000                 0.0000
 IR Inten    --    17.8595                22.5135                10.8269
 Raman Activ --     0.0000                 0.0000                 0.0000
 Depolar     --     0.0000                 0.0000                 0.0000
 Atom AN      X      Y      Z        X      Y      Z        X      Y      Z
   1   8    -0.00  -0.00  -0.00    -0.00  -0.00  -0.00     0.00   0.00   0.00
   2   6    -0.00   0.00  -0.00     0.00  -0.00   0.00     0.00   0.00  -0.00
   3   1     0.00   0.00  -0.00    -0.00  -0.00  -0.00    -0.00  -0.00   0.00
   4   1     0.00  -0.00   0.00    -0.00  -0.00  -0.00     0.00  -0.00  -0.00
   5   6     0.00   0.00   0.00     0.00  -0.00  -0.00     0.00   0.00   0.00
   6   1     0.00   0.00  -0.00     0.00   0.00   0.00    -0.00  -0.00  -0.00
   7   1    -0.00  -0.00   0.00    -0.00   0.00   0.00     0.00   0.00   0.00
   8   7     0.00   0.00  -0.00    -0.00   0.00  -0.00     0.00  -0.00   0.00
   9   6     0.00  -0.00   0.00     0.00   0.00  -0.00     0.00  -0.00   0.00
  10   1     0.00   0.00  -0.00     0.00   0.00   0.00    -0.00  -0.00  -0.00
  11   1     0.00  -0.00  -0.00    -0.00  -0.00  -0.00     0.00   0.00   0.00
  12   1     0.00   0.00  -0.00     0.00  -0.00   0.00    -0.00   0.00   0.00
  13   6     0.00   0.00   0.00    -0.00   0.00  -0.00     0.00   0.00   0.00
  14   1     0.00  -0.00  -0.00     0.00   0.00   0.00    -0.00  -0.00  -0.00
  15   1    -0.00  -0.00   0.00    -0.00   0.00   0.00     0.00   0.00   0.00
  16   1     0.00  -0.00  -0.00    -0.00  -0.00  -0.00     0.00   0.00   0.00
  17   6    -0.00   0.00  -0.00     0.00   0.00   0.00    -0.00  -0.00  -0.00
  18   1    -0.00   0.00   0.00    -0.00   0.00   0.00     0.00   0.00   0.00
  19   1     0.00   0.00  -0.00     0.00  -0.00  -0.00     0.00  -0.00   0.00
  20   1     0.00  -0.00  -0.00    -0.00  -0.00  -0.00     0.00   0.00   0.00
  21   1     0.00   0.00   0.00     0.00   0.00   0.01    -0.00  -0.00  -0.00
  22   6     0.00   0.00   0.00    -0.00   0.00   0.00    -0.00   0.00  -0.00
  23   8    -0.00  -0.00   0.00    -0.00  -0.00   0.00    -0.00   0.00   0.00
  24   7     0.00  -0.00   0.00     0.00  -0.00   0.00    -0.00   0.00   0.00
  25   1    -0.01   0.01  -0.00    -0.00   0.00  -0.00     0.01  -0.01   0.00
  26   1     0.01  -0.00  -0.00     0.00  -0.00  -0.00     0.01  -0.00  -0.00
  27   7    -0.00  -0.00   0.00    -0.00  -0.00   0.00    -0.00  -0.00   0.00
  28   1     0.02   0.00  -0.01     0.00  -0.00  -0.00     0.00   0.00  -0.00
  29   1     0.00   0.00  -0.00     0.00   0.01  -0.01     0.00   0.00  -0.00
  30   6     0.00   0.00  -0.00     0.00  -0.00   0.00     0.00  -0.00  -0.00
  31   8    -0.00  -0.00   0.00    -0.00   0.00   0.00     0.00   0.00   0.00
  32   7    -0.00  -0.00   0.00    -0.00  -0.00   0.00    -0.00  -0.00   0.00
  33   1     0.00   0.01  -0.01     0.00   0.00  -0.00     0.00   0.00  -0.00
  34   1    -0.00  -0.01  -0.00     0.00   0.00   0.00     0.00   0.01   0.00
  35   7     0.00   0.00  -0.00     0.00  -0.00  -0.00     0.00   0.00   0.00
  36   1    -0.00  -0.00  -0.00     0.00  -0.00   0.00    -0.00  -0.01  -0.01
  37   1    -0.00   0.00   0.00    -0.00   0.00   0.01     0.00   0.00  -0.00
  38   6     0.00   0.00  -0.00     0.00  -0.00  -0.00    -0.01  -0.01   0.00
  39   8    -0.00  -0.00  -0.00    -0.00  -0.00   0.00     0.00   0.00   0.00
  40   7    -0.01  -0.01   0.00    -0.00  -0.00   0.00    -0.17  -0.17  -0.09
  41   1     0.00   0.01  -0.01     0.00   0.00  -0.00     0.01   0.04  -0.05
  42   1     0.03   0.03   0.02    -0.00  -0.00  -0.00     0.64   0.61   0.37
  43   7     0.12   0.09  -0.11     0.00   0.00  -0.00     0.00   0.01   0.03
  44   1    -0.46  -0.45  -0.28    -0.00  -0.00  -0.00    -0.02  -0.02  -0.01
  45   1    -0.00   0.13   0.68     0.00   0.00   0.00     0.00  -0.02  -0.08
  46   6    -0.00   0.00  -0.00     0.00   0.00  -0.00    -0.00   0.00  -0.00
  47   8    -0.00  -0.00  -0.00    -0.00  -0.00  -0.00     0.00   0.00   0.00
  48   7     0.00  -0.00   0.00    -0.01  -0.01  -0.00    -0.00  -0.00  -0.00
  49   1     0.00   0.00  -0.00     0.00   0.01  -0.00     0.00   0.00  -0.00
  50   1    -0.00  -0.00  -0.00     0.05   0.01   0.02     0.00   0.00   0.00
  51   7    -0.00  -0.00   0.00     0.08   0.16  -0.04    -0.00   0.00  -0.00
  52   1     0.00   0.00   0.00    -0.69  -0.13  -0.12     0.00   0.00  -0.00
  53   1    -0.00   0.00  -0.00     0.40  -0.47   0.27     0.00  -0.00   0.00
                    148                    149                    150
                        a                      a                      a 
 Frequencies --  3532.2002              3538.0452              3539.3713
 Red. masses --     1.8944                 2.1572                 1.9534
 Frc consts  --     0.0000                 0.0000                 0.0000
 IR Inten    --    14.9939                21.4037                13.3876
 Raman Activ --     0.0000                 0.0000                 0.0000
 Depolar     --     0.0000                 0.0000                 0.0000
 Atom AN      X      Y      Z        X      Y      Z        X      Y      Z
   1   8    -0.00  -0.00  -0.00     0.00   0.00   0.00    -0.00   0.00  -0.00
   2   6     0.00  -0.00  -0.00     0.00   0.00  -0.00     0.00  -0.00   0.00
   3   1    -0.00  -0.00  -0.00    -0.00   0.00  -0.00    -0.00  -0.00   0.00
   4   1    -0.00  -0.00   0.00    -0.00   0.00   0.00     0.00  -0.00  -0.00
   5   6    -0.00   0.00   0.00     0.00  -0.00  -0.00    -0.00  -0.00  -0.00
   6   1    -0.00  -0.00  -0.00     0.00  -0.00   0.00     0.00   0.00   0.00
   7   1     0.00   0.00  -0.00    -0.00   0.00   0.00     0.00  -0.00  -0.00
   8   7     0.00   0.00   0.00     0.00  -0.00   0.00    -0.00   0.00   0.00
   9   6    -0.00  -0.00  -0.00    -0.00  -0.00  -0.00     0.00  -0.00  -0.00
  10   1     0.00   0.00   0.00     0.00  -0.00   0.00     0.00  -0.00   0.00
  11   1     0.00   0.00   0.00     0.00   0.00   0.00    -0.00   0.00   0.00
  12   1    -0.00  -0.00  -0.00    -0.00   0.00  -0.00    -0.00   0.00  -0.00
  13   6    -0.00  -0.00  -0.00    -0.00  -0.00  -0.00    -0.00  -0.00  -0.00
  14   1     0.00   0.00   0.00    -0.00   0.00   0.00    -0.00   0.00   0.00
  15   1     0.00   0.00  -0.00     0.00  -0.00  -0.00     0.00  -0.00  -0.00
  16   1    -0.00   0.00   0.00    -0.00   0.00  -0.00     0.00   0.00  -0.00
  17   6     0.00   0.00  -0.00    -0.00  -0.00   0.00     0.00  -0.00   0.00
  18   1     0.00  -0.00  -0.00    -0.00   0.00  -0.00     0.00  -0.00  -0.00
  19   1    -0.00  -0.00  -0.00    -0.00  -0.00  -0.00    -0.00  -0.00  -0.00
  20   1     0.00   0.00   0.00    -0.00   0.00   0.00    -0.00   0.00  -0.00
  21   1     0.00   0.00   0.00    -0.00  -0.00  -0.00     0.00   0.00   0.00
  22   6     0.00  -0.00  -0.00     0.01  -0.01  -0.00     0.00  -0.00  -0.00
  23   8    -0.00  -0.00   0.00    -0.00   0.00   0.00    -0.00   0.00   0.00
  24   7    -0.01   0.00   0.00     0.24  -0.17  -0.04     0.03  -0.02  -0.01
  25   1     0.01  -0.01   0.00    -0.47   0.56  -0.19    -0.06   0.08  -0.03
  26   1     0.01  -0.00  -0.01    -0.43   0.09   0.36    -0.06   0.01   0.05
  27   7    -0.00   0.00   0.00     0.00   0.00  -0.00     0.00   0.00  -0.00
  28   1     0.00   0.00  -0.00    -0.02   0.00   0.01    -0.01   0.00   0.01
  29   1    -0.00  -0.00   0.00    -0.00  -0.00   0.00    -0.00  -0.00   0.00
  30   6    -0.00  -0.00   0.00    -0.00  -0.00   0.00     0.00   0.01  -0.00
  31   8    -0.00   0.00  -0.00     0.00   0.00  -0.00    -0.00  -0.00   0.00
  32   7     0.00   0.00   0.00    -0.00  -0.03  -0.01     0.00   0.24   0.07
  33   1    -0.00  -0.00   0.00     0.00   0.01  -0.01    -0.01  -0.07   0.08
  34   1    -0.00  -0.00  -0.00     0.00   0.12   0.05    -0.01  -0.84  -0.32
  35   7    -0.00  -0.00   0.00    -0.00   0.01   0.01     0.01  -0.06  -0.07
  36   1     0.00   0.00   0.00    -0.00  -0.03  -0.01     0.02   0.22   0.10
  37   1     0.00  -0.00  -0.00     0.01  -0.00  -0.02    -0.07   0.02   0.15
  38   6     0.00   0.00  -0.00     0.00   0.00   0.00     0.00   0.00   0.00
  39   8    -0.00  -0.00   0.00    -0.00   0.00  -0.00    -0.00  -0.00  -0.00
  40   7    -0.00  -0.00  -0.00    -0.00  -0.00  -0.00    -0.00  -0.00  -0.00
  41   1    -0.00  -0.00   0.00    -0.00  -0.00   0.00    -0.00  -0.00   0.00
  42   1     0.00   0.00   0.00     0.01   0.01   0.00     0.01   0.01   0.01
  43   7    -0.00   0.00   0.00    -0.00  -0.00  -0.00    -0.00  -0.00  -0.00
  44   1    -0.00  -0.00  -0.00     0.01   0.01   0.00     0.01   0.01   0.01
  45   1     0.00  -0.00  -0.00     0.00   0.00   0.00    -0.00   0.00   0.01
  46   6     0.01   0.01   0.00     0.00   0.00   0.00    -0.00  -0.00   0.00
  47   8    -0.00  -0.00  -0.00    -0.00  -0.00   0.00     0.00  -0.00  -0.00
  48   7     0.24   0.07   0.08     0.01   0.00   0.00     0.00   0.00  -0.00
  49   1    -0.01  -0.07   0.02    -0.00  -0.01   0.00    -0.00  -0.00   0.00
  50   1    -0.88  -0.21  -0.31    -0.02  -0.01  -0.01    -0.00  -0.00  -0.00
  51   7    -0.02   0.02  -0.01    -0.00   0.00  -0.00     0.00  -0.00   0.00
  52   1     0.01   0.00   0.00     0.00   0.00   0.00     0.00   0.00   0.00
  53   1     0.05  -0.06   0.03     0.00  -0.00   0.00    -0.00   0.00  -0.00
                    151                    152                    153
                        a                      a                      a 
 Frequencies --  3549.1971              3557.7200              3566.3509
 Red. masses --     2.1143                 2.1783                 2.1853
 Frc consts  --     0.0000                 0.0000                 0.0000
 IR Inten    --    26.9006                14.8664                17.4186
 Raman Activ --     0.0000                 0.0000                 0.0000
 Depolar     --     0.0000                 0.0000                 0.0000
 Atom AN      X      Y      Z        X      Y      Z        X      Y      Z
   1   8    -0.00   0.00  -0.00    -0.00   0.00  -0.00    -0.00  -0.00  -0.00
   2   6     0.00  -0.00  -0.00     0.00  -0.00  -0.00     0.00  -0.00   0.00
   3   1    -0.00  -0.00   0.00    -0.00  -0.00   0.00     0.00  -0.00   0.00
   4   1     0.00  -0.00  -0.00     0.00   0.00  -0.00    -0.00  -0.00  -0.00
   5   6    -0.00   0.00  -0.00    -0.00   0.00   0.00     0.00  -0.00  -0.00
   6   1    -0.00   0.00   0.00    -0.00  -0.00  -0.00    -0.00   0.00   0.00
   7   1     0.00  -0.00  -0.00     0.00   0.00  -0.00    -0.00  -0.00  -0.00
   8   7    -0.00   0.00  -0.00     0.00  -0.00   0.00    -0.00  -0.00  -0.00
   9   6     0.00  -0.00   0.00     0.00  -0.00   0.00    -0.00   0.00   0.00
  10   1    -0.00   0.00  -0.00    -0.00  -0.00  -0.00    -0.00   0.00  -0.00
  11   1     0.00   0.00   0.00     0.00   0.00   0.00    -0.00  -0.00  -0.00
  12   1    -0.00   0.00   0.00    -0.00  -0.00   0.00     0.00  -0.00   0.00
  13   6    -0.00  -0.00  -0.00     0.00   0.00   0.00    -0.00   0.00   0.00
  14   1    -0.00   0.00   0.00    -0.00  -0.00  -0.00    -0.00  -0.00  -0.00
  15   1     0.00  -0.00  -0.00     0.00   0.00   0.00     0.00  -0.00  -0.00
  16   1     0.00   0.00  -0.00     0.00   0.00   0.00     0.00   0.00   0.00
  17   6    -0.00   0.00   0.00    -0.00  -0.00   0.00    -0.00  -0.00  -0.00
  18   1     0.00  -0.00  -0.00     0.00   0.00  -0.00    -0.00   0.00   0.00
  19   1    -0.00  -0.00   0.00     0.00  -0.00   0.00     0.00  -0.00   0.00
  20   1     0.00   0.00  -0.00     0.00   0.00   0.00     0.00  -0.00  -0.00
  21   1     0.00   0.00   0.01     0.00   0.00   0.00     0.00   0.00   0.00
  22   6    -0.00   0.00   0.00    -0.00   0.00   0.00    -0.00   0.00   0.00
  23   8     0.00  -0.00  -0.00    -0.00  -0.00   0.00     0.00   0.00  -0.00
  24   7    -0.00   0.00   0.00    -0.00   0.00   0.00    -0.00   0.00   0.00
  25   1     0.00  -0.00   0.00     0.00  -0.01   0.00     0.00  -0.00   0.00
  26   1     0.00  -0.00  -0.00     0.01  -0.00  -0.01     0.00  -0.00  -0.00
  27   7    -0.00   0.00   0.00    -0.00  -0.00   0.00    -0.00  -0.00   0.00
  28   1     0.00  -0.00  -0.00     0.01   0.00  -0.00     0.00  -0.00  -0.00
  29   1     0.00  -0.00   0.00     0.00   0.00  -0.00     0.00   0.01  -0.00
  30   6     0.00  -0.01  -0.01     0.00  -0.00  -0.00     0.00  -0.00   0.00
  31   8     0.00   0.00   0.00     0.00   0.00   0.00    -0.00   0.00  -0.00
  32   7    -0.00  -0.08  -0.02    -0.00  -0.01   0.00    -0.00   0.00   0.00
  33   1     0.00   0.03  -0.03     0.00   0.01  -0.01     0.00  -0.00   0.00
  34   1     0.00   0.28   0.11     0.00   0.02   0.01     0.00  -0.00  -0.00
  35   7     0.03  -0.20  -0.19     0.00  -0.00  -0.00    -0.00   0.00   0.00
  36   1     0.07   0.71   0.31     0.00   0.01   0.00    -0.00  -0.01  -0.00
  37   1    -0.19   0.05   0.43    -0.00   0.00   0.01     0.00  -0.00  -0.00
  38   6    -0.00  -0.00  -0.00    -0.00  -0.00  -0.01     0.00   0.00  -0.00
  39   8     0.00   0.00   0.00     0.00   0.00   0.00    -0.00  -0.00   0.00
  40   7    -0.00  -0.00   0.00    -0.01  -0.01  -0.01     0.00   0.00   0.00
  41   1     0.00   0.01  -0.00     0.00   0.00  -0.01     0.00  -0.00   0.00
  42   1     0.00   0.00   0.00     0.05   0.05   0.03    -0.00  -0.00  -0.00
  43   7     0.00   0.00   0.00    -0.11  -0.14  -0.24     0.00   0.00   0.00
  44   1    -0.01  -0.01  -0.01     0.45   0.43   0.24    -0.00  -0.00  -0.00
  45   1     0.00  -0.00  -0.01    -0.03   0.11   0.66     0.00  -0.00  -0.00
  46   6     0.00   0.00   0.00     0.00   0.00  -0.00    -0.01   0.00  -0.00
  47   8    -0.00  -0.00  -0.00    -0.00  -0.00   0.00     0.00  -0.00   0.00
  48   7    -0.00  -0.00  -0.00    -0.00  -0.00   0.00    -0.02  -0.01  -0.00
  49   1     0.00   0.00   0.00     0.00   0.00  -0.00     0.00   0.01  -0.00
  50   1     0.00   0.00   0.00    -0.00  -0.00   0.00     0.06   0.01   0.02
  51   7    -0.00   0.00  -0.00    -0.00   0.00  -0.00    -0.27   0.09  -0.10
  52   1     0.01   0.00   0.00     0.00   0.00   0.00     0.63   0.14   0.10
  53   1     0.00  -0.00   0.00     0.00  -0.00   0.00     0.39  -0.50   0.28
