      -----------------------------------------------------------      
     |                   =====================                   |     
     |                           x T B                           |     
     |                   =====================                   |     
     |                         S. Grimme                         |     
     |          Mulliken Center for Theoretical Chemistry        |     
     |                    University of Bonn                     |     
      -----------------------------------------------------------      

   * xtb version 6.6.1 (unknown-commit) compiled by '@Linux' on 12/27/2023

   xtb is free software: you can redistribute it and/or modify it under
   the terms of the GNU Lesser General Public License as published by
   the Free Software Foundation, either version 3 of the License, or
   (at your option) any later version.
   
   xtb is distributed in the hope that it will be useful,
   but WITHOUT ANY WARRANTY; without even the implied warranty of
   MERCHANTABILITY or FITNESS FOR A PARTICULAR PURPOSE.  See the
   GNU Lesser General Public License for more details.
   
   Cite this work as:
   * C. Bannwarth, E. Caldeweyher, S. Ehlert, A. Hansen, P. Pracht,
     J. Seibert, S. Spicher, S. Grimme, WIREs Comput. Mol. Sci., 2020, 11,
     e01493. DOI: 10.1002/wcms.1493
   
   for GFN2-xTB:
   * C. Bannwarth, S. Ehlert and S. Grimme., J. Chem. Theory Comput., 2019,
     15, 1652-1671. DOI: 10.1021/acs.jctc.8b01176
   for GFN1-xTB:
   * S. Grimme, C. Bannwarth, P. Shushkov, J. Chem. Theory Comput., 2017,
     13, 1989-2009. DOI: 10.1021/acs.jctc.7b00118
   for GFN0-xTB:
   * P. Pracht, E. Caldeweyher, S. Ehlert, S. Grimme, ChemRxiv, 2019, preprint.
     DOI: 10.26434/chemrxiv.8326202.v1
   for GFN-FF:
   * S. Spicher and S. Grimme, Angew. Chem. Int. Ed., 2020, 59, 15665-15673.
     DOI: 10.1002/anie.202004239
   
   for ALPB and GBSA implicit solvation:
   * S. Ehlert, M. Stahn, S. Spicher, S. Grimme, J. Chem. Theory Comput.,
     2021, 17, 4250-4261. DOI: 10.1021/acs.jctc.1c00471
   
   for DFT-D4:
   * E. Caldeweyher, C. Bannwarth and S. Grimme, J. Chem. Phys., 2017,
     147, 034112. DOI: 10.1063/1.4993215
   * E. Caldeweyher, S. Ehlert, A. Hansen, H. Neugebauer, S. Spicher,
     C. Bannwarth and S. Grimme, J. Chem. Phys., 2019, 150, 154122.
     DOI: 10.1063/1.5090222
   * E. Caldeweyher, J.-M. Mewes, S. Ehlert and S. Grimme, Phys. Chem. Chem. Phys.
     2020, 22, 8499-8512. DOI: 10.1039/D0CP00502A
   
   for sTDA-xTB:
   * S. Grimme and C. Bannwarth, J. Chem. Phys., 2016, 145, 054103.
     DOI: 10.1063/1.4959605
   
   in the mass-spec context:
   * V. Asgeirsson, C. Bauer and S. Grimme, Chem. Sci., 2017, 8, 4879.
     DOI: 10.1039/c7sc00601b
   * J. Koopman and S. Grimme, ACS Omega 2019, 4, 12, 15120-15133.
     DOI: 10.1021/acsomega.9b02011
   
   for metadynamics refer to:
   * S. Grimme, J. Chem. Theory Comput., 2019, 155, 2847-2862
     DOI: 10.1021/acs.jctc.9b00143
   
   for SPH calculations refer to:
   * S. Spicher and S. Grimme, J. Chem. Theory Comput., 2021, 17, 1701-1714
     DOI: 10.1021/acs.jctc.0c01306
   
   with help from (in alphabetical order)
   P. Atkinson, C. Bannwarth, F. Bohle, G. Brandenburg, E. Caldeweyher
   M. Checinski, S. Dohm, S. Ehlert, S. Ehrlich, I. Gerasimov, C. Hölzer
   A. Katbashev, J. Koopman, C. Lavigne, S. Lehtola, F. März, M. Müller,
   F. Musil, H. Neugebauer, J. Pisarek, C. Plett, P. Pracht, F. Pultar,
   J. Seibert, P. Shushkov, S. Spicher, M. Stahn, M. Steiner, T. Strunk,
   J. Stückrath, T. Rose, and J. Unsleber
   
 * started run on 2024/01/10 at 15:39:07.255     

           -------------------------------------------------
          |                Calculation Setup                |
           -------------------------------------------------

          program call               : xtb struc.xyz --gfn2 --hess
          hostname                   : swaroop
          coordinate file            : struc.xyz
          omp threads                :                     1

   ID    Z sym.   atoms
    1    8 O      1, 23, 31, 39, 47
    2    6 C      2, 5, 9, 13, 17, 22, 30, 38, 46
    3    1 H      3, 4, 6, 7, 10-12, 14-16, 18-21, 25, 26, 28, 29, 33, 34,
                  36, 37, 41, 42, 44, 45, 49, 50, 52, 53
    4    7 N      8, 24, 27, 32, 35, 40, 43, 48, 51

molecular fragmentation (1/2 indicates fragments):
11111111111111111111122222222222222222222222222222222
# atoms in fragment 1/2:    21    32
 fragment masses (1/2) :      104.17      240.22
CMA distance (Bohr)    :   6.516
constraining FC (au)   :  0.0500

           -------------------------------------------------
          |                 G F N 2 - x T B                 |
           -------------------------------------------------

        Reference                      10.1021/acs.jctc.8b01176
      * Hamiltonian:
        H0-scaling (s, p, d)           1.850000    2.230000    2.230000
        zeta-weighting                 0.500000
      * Dispersion:
        s8                             2.700000
        a1                             0.520000
        a2                             5.000000
        s9                             5.000000
      * Repulsion:
        kExp                           1.500000    1.000000
        rExp                           1.000000
      * Coulomb:
        alpha                          2.000000
        third order                    shell-resolved
        anisotropic                    true
        a3                             3.000000
        a5                             4.000000
        cn-shift                       1.200000
        cn-exp                         4.000000
        max-rad                        5.000000


          ...................................................
          :                      SETUP                      :
          :.................................................:
          :  # basis functions                 122          :
          :  # atomic orbitals                 122          :
          :  # shells                           76          :
          :  # electrons                       140          :
          :  max. iterations                   250          :
          :  Hamiltonian                  GFN2-xTB          :
          :  restarted?                      false          :
          :  GBSA solvation                  false          :
          :  PC potential                    false          :
          :  electronic temp.          300.0000000     K    :
          :  accuracy                    1.0000000          :
          :  -> integral cutoff          0.2500000E+02      :
          :  -> integral neglect         0.1000000E-07      :
          :  -> SCF convergence          0.1000000E-05 Eh   :
          :  -> wf. convergence          0.1000000E-03 e    :
          :  Broyden damping             0.4000000          :
          ...................................................

 iter      E             dE          RMSdq      gap      omega  full diag
   1    -81.5457731 -0.815458E+02  0.434E+00    5.10       0.0  T
   2    -81.8391817 -0.293409E+00  0.237E+00    5.93       1.0  T
   3    -81.8449708 -0.578913E-02  0.117E+00    5.69       1.0  T
   4    -81.8463189 -0.134808E-02  0.239E-01    5.79       1.0  T
   5    -81.8472132 -0.894315E-03  0.926E-02    5.69       1.0  T
   6    -81.8472385 -0.252334E-04  0.270E-02    5.69       1.0  T
   7    -81.8472435 -0.503558E-05  0.759E-03    5.69       1.8  T
   8    -81.8472438 -0.273162E-06  0.283E-03    5.69       4.8  T
   9    -81.8472438 -0.209528E-07  0.985E-04    5.69      13.9  T
  10    -81.8472438 -0.653421E-08  0.200E-04    5.69      68.8  T

   *** convergence criteria satisfied after 10 iterations ***

         #    Occupation            Energy/Eh            Energy/eV
      -------------------------------------------------------------
         1        2.0000           -0.7824808             -21.2924
       ...           ...                  ...                  ...
        64        2.0000           -0.4893870             -13.3169
        65        2.0000           -0.4868329             -13.2474
        66        2.0000           -0.4839485             -13.1689
        67        2.0000           -0.4821020             -13.1187
        68        2.0000           -0.4774933             -12.9933
        69        2.0000           -0.4759530             -12.9513
        70        2.0000           -0.4721001             -12.8465 (HOMO)
        71                         -0.2631403              -7.1604 (LUMO)
        72                         -0.2615594              -7.1174
        73                         -0.2500781              -6.8050
        74                         -0.2465960              -6.7102
        75                         -0.1388461              -3.7782
       ...                                ...                  ...
       122                          0.5778442              15.7239
      -------------------------------------------------------------
                  HL-Gap            0.2089598 Eh            5.6861 eV
             Fermi-level           -0.3676202 Eh          -10.0035 eV

 SCC (total)                   0 d,  0 h,  0 min,  0.085 sec
 SCC setup                      ...        0 min,  0.000 sec (  0.335%)
 Dispersion                     ...        0 min,  0.001 sec (  0.696%)
 classical contributions        ...        0 min,  0.000 sec (  0.213%)
 integral evaluation            ...        0 min,  0.007 sec (  8.272%)
 iterations                     ...        0 min,  0.051 sec ( 60.135%)
 molecular gradient             ...        0 min,  0.026 sec ( 30.050%)
 printout                       ...        0 min,  0.000 sec (  0.286%)

         :::::::::::::::::::::::::::::::::::::::::::::::::::::
         ::                     SUMMARY                     ::
         :::::::::::::::::::::::::::::::::::::::::::::::::::::
         :: total energy             -80.931457043738 Eh    ::
         :: gradient norm              0.000059939625 Eh/a0 ::
         :: HOMO-LUMO gap              5.686086471114 eV    ::
         ::.................................................::
         :: SCC energy               -81.847243805824 Eh    ::
         :: -> isotropic ES            0.288885054125 Eh    ::
         :: -> anisotropic ES         -0.028282429435 Eh    ::
         :: -> anisotropic XC          0.020939875543 Eh    ::
         :: -> dispersion             -0.038473345123 Eh    ::
         :: repulsion energy           0.915576731671 Eh    ::
         :: add. restraining           0.000000000000 Eh    ::
         :: total charge               1.000000000000 e     ::
         :::::::::::::::::::::::::::::::::::::::::::::::::::::

           ------------------------------------------------- 
          |                Numerical Hessian                |
           ------------------------------------------------- 
step length          :   0.00500
SCC accuracy         :   0.30000
Hessian scale factor :   1.00000
frozen atoms in %    :   0.00000    0
RMS gradient         :   0.00006
estimated CPU  time      0.22 min
estimated wall time      0.22 min

writing file <hessian>.

 projected vibrational frequencies (cm⁻¹)
eigval :       -0.00    -0.00    -0.00     0.00     0.00     0.00
eigval :      -11.04     5.59     8.65    14.55    17.55    20.08
eigval :       24.61    29.11    38.56    40.03    46.42    53.87
eigval :       59.93    64.43    74.84    76.27    88.60    96.81
eigval :      103.52   115.18   117.24   125.25   132.08   172.91
eigval :      180.81   193.95   256.08   256.55   278.77   281.70
eigval :      315.16   318.67   325.10   327.13   357.79   359.35
eigval :      372.78   381.62   402.47   428.46   443.83   445.64
eigval :      454.31   457.38   463.16   466.30   471.99   472.78
eigval :      483.37   500.58   501.79   510.92   530.68   533.87
eigval :      545.82   569.63   571.20   581.75   637.16   669.84
eigval :      674.17   676.06   678.98   725.05   769.68   857.45
eigval :      895.00   931.12   946.64   951.14   974.21   994.79
eigval :      995.85   997.06  1004.89  1011.72  1015.25  1028.76
eigval :     1031.37  1040.12  1045.36  1081.43  1083.83  1097.20
eigval :     1101.17  1107.74  1114.56  1136.85  1175.92  1230.67
eigval :     1252.20  1284.38  1310.46  1338.63  1344.05  1347.43
eigval :     1351.84  1353.99  1364.52  1398.07  1404.53  1406.10
eigval :     1428.81  1435.90  1442.61  1447.10  1451.30  1456.31
eigval :     1457.14  1457.50  1464.98  1471.94  1473.94  1479.10
eigval :     1494.40  1496.28  1496.55  1500.13  1529.35  1665.11
eigval :     1715.96  1724.83  1729.63  2882.25  2954.24  2968.70
eigval :     2986.59  2992.29  3036.18  3039.88  3040.95  3041.94
eigval :     3045.43  3052.80  3054.10  3058.87  3062.48  3229.73
eigval :     3392.86  3432.71  3494.66  3495.69  3499.53  3500.11
eigval :     3504.10  3524.26  3525.44  3557.77  3558.78  3559.28
eigval :     3564.32  3564.49  3569.98
           -------------------------------------------------
          |                Property Printout                |
           -------------------------------------------------

    * Orbital Energies and Occupations

         #    Occupation            Energy/Eh            Energy/eV
      -------------------------------------------------------------
         1        2.0000           -0.7824824             -21.2924
       ...           ...                  ...                  ...
        58        2.0000           -0.5012871             -13.6407
        59        2.0000           -0.4991227             -13.5818
        60        2.0000           -0.4969008             -13.5214
        61        2.0000           -0.4962601             -13.5039
        62        2.0000           -0.4930036             -13.4153
        63        2.0000           -0.4911461             -13.3648
        64        2.0000           -0.4893870             -13.3169
        65        2.0000           -0.4868323             -13.2474
        66        2.0000           -0.4839500             -13.1690
        67        2.0000           -0.4821020             -13.1187
        68        2.0000           -0.4774937             -12.9933
        69        2.0000           -0.4759537             -12.9514
        70        2.0000           -0.4721014             -12.8465 (HOMO)
        71                         -0.2631424              -7.1605 (LUMO)
        72                         -0.2615622              -7.1175
        73                         -0.2500756              -6.8049
        74                         -0.2465995              -6.7103
        75                         -0.1388454              -3.7782
        76                         -0.0934430              -2.5427
        77                         -0.0916264              -2.4933
        78                         -0.0782581              -2.1295
        79                         -0.0676089              -1.8397
        80                         -0.0615237              -1.6741
        81                         -0.0593844              -1.6159
       ...                                ...                  ...
       122                          0.5778433              15.7239
      -------------------------------------------------------------
                  HL-Gap            0.2089590 Eh            5.6861 eV
             Fermi-level           -0.3676219 Eh          -10.0035 eV

     #   Z          covCN         q      C6AA      α(0)
     1   8 O        1.652    -0.485    22.584     6.415
     2   6 C        3.673     0.078    19.503     6.329
     3   1 H        0.924     0.048     2.343     2.394
     4   1 H        0.923     0.040     2.455     2.450
     5   6 C        3.762    -0.063    21.761     6.650
     6   1 H        0.924     0.124     1.583     1.967
     7   1 H        0.924     0.068     2.107     2.270
     8   7 N        3.623     0.160    18.552     6.397
     9   6 C        3.736    -0.118    22.854     6.822
    10   1 H        0.925     0.125     1.577     1.964
    11   1 H        0.925     0.074     2.044     2.236
    12   1 H        0.925     0.118     1.630     1.997
    13   6 C        3.723    -0.105    22.620     6.792
    14   1 H        0.925     0.122     1.599     1.978
    15   1 H        0.925     0.076     2.017     2.221
    16   1 H        0.925     0.095     1.830     2.116
    17   6 C        3.730    -0.119    22.875     6.827
    18   1 H        0.925     0.107     1.722     2.052
    19   1 H        0.925     0.118     1.627     1.995
    20   1 H        0.925     0.105     1.737     2.061
    21   1 H        0.801     0.339     0.615     1.232
    22   6 C        2.675     0.347    21.105     7.518
    23   8 O        0.860    -0.511    24.034     6.573
    24   7 N        2.645    -0.288    27.433     7.779
    25   1 H        0.860     0.201     1.099     1.642
    26   1 H        0.861     0.187     1.175     1.698
    27   7 N        2.645    -0.289    27.459     7.783
    28   1 H        0.861     0.187     1.176     1.699
    29   1 H        0.860     0.200     1.104     1.646
    30   6 C        2.675     0.339    21.241     7.542
    31   8 O        0.860    -0.535    24.582     6.647
    32   7 N        2.650    -0.292    27.528     7.792
    33   1 H        0.861     0.191     1.154     1.683
    34   1 H        0.860     0.224     0.992     1.561
    35   7 N        2.650    -0.296    27.626     7.806
    36   1 H        0.860     0.224     0.993     1.561
    37   1 H        0.860     0.207     1.071     1.621
    38   6 C        2.675     0.346    21.125     7.521
    39   8 O        0.860    -0.518    24.183     6.593
    40   7 N        2.646    -0.290    27.467     7.784
    41   1 H        0.860     0.199     1.111     1.651
    42   1 H        0.861     0.185     1.185     1.705
    43   7 N        2.646    -0.290    27.482     7.786
    44   1 H        0.861     0.185     1.186     1.706
    45   1 H        0.860     0.199     1.110     1.650
    46   6 C        2.675     0.344    21.152     7.526
    47   8 O        0.860    -0.529    24.428     6.627
    48   7 N        2.644    -0.314    28.070     7.869
    49   1 H        0.860     0.240     0.924     1.506
    50   1 H        0.860     0.169     1.277     1.770
    51   7 N        2.644    -0.299    27.709     7.818
    52   1 H        0.860     0.177     1.230     1.737
    53   1 H        0.860     0.193     1.143     1.675

 Mol. C6AA /au·bohr⁶  :      21806.473564
 Mol. C8AA /au·bohr⁸  :     454280.079179
 Mol. α(0) /au        :        220.636784


Wiberg/Mayer (AO) data.
largest (>0.10) Wiberg bond orders for each atom

 ---------------------------------------------------------------------------
     #   Z sym  total        # sym  WBO       # sym  WBO       # sym  WBO
 ---------------------------------------------------------------------------
     1   8 O    1.941 --     2 C    1.026    21 H    0.792
     2   6 C    3.969 --     1 O    1.026     5 C    0.990     3 H    0.968
                             4 H    0.962
     3   1 H    0.997 --     2 C    0.968
     4   1 H    0.998 --     2 C    0.962
     5   6 C    3.935 --     2 C    0.990     7 H    0.970     6 H    0.947
                             8 N    0.938
     6   1 H    0.985 --     5 C    0.947
     7   1 H    0.995 --     5 C    0.970
     8   7 N    3.823 --    13 C    0.962     9 C    0.955    17 C    0.951
                             5 C    0.938
     9   6 C    3.919 --    11 H    0.980    12 H    0.963    10 H    0.962
                             8 N    0.955
    10   1 H    0.984 --     9 C    0.962
    11   1 H    0.995 --     9 C    0.980
    12   1 H    0.986 --     9 C    0.963
    13   6 C    3.932 --    15 H    0.980    16 H    0.975     8 N    0.962
                            14 H    0.961
    14   1 H    0.985 --    13 C    0.961
    15   1 H    0.994 --    13 C    0.980
    16   1 H    0.991 --    13 C    0.975
    17   6 C    3.911 --    20 H    0.969    18 H    0.967    19 H    0.964
                             8 N    0.951
    18   1 H    0.989 --    17 C    0.967
    19   1 H    0.986 --    17 C    0.964
    20   1 H    0.989 --    17 C    0.969
    21   1 H    0.885 --     1 O    0.792
    22   6 C    3.959 --    23 O    1.537    24 N    1.208    27 N    1.206
    23   8 O    1.922 --    22 C    1.537    27 N    0.143    24 N    0.142
    24   7 N    3.321 --    22 C    1.208    26 H    0.946    25 H    0.942
                            23 O    0.142
    25   1 H    0.959 --    24 N    0.942
    26   1 H    0.965 --    24 N    0.946
    27   7 N    3.321 --    22 C    1.206    28 H    0.946    29 H    0.943
                            23 O    0.143
    28   1 H    0.965 --    27 N    0.946
    29   1 H    0.960 --    27 N    0.943
    30   6 C    3.960 --    31 O    1.453    35 N    1.259    32 N    1.243
    31   8 O    1.928 --    30 C    1.453    35 N    0.134    32 N    0.130
    32   7 N    3.342 --    30 C    1.243    33 H    0.945    34 H    0.912
                            31 O    0.130
    33   1 H    0.964 --    32 N    0.945
    34   1 H    0.950 --    32 N    0.912
    35   7 N    3.352 --    30 C    1.259    37 H    0.934    36 H    0.907
                            31 O    0.134
    36   1 H    0.950 --    35 N    0.907
    37   1 H    0.957 --    35 N    0.934
    38   6 C    3.959 --    39 O    1.543    40 N    1.205    43 N    1.204
    39   8 O    1.899 --    38 C    1.543    40 N    0.144    43 N    0.144
    40   7 N    3.321 --    38 C    1.205    42 H    0.947    41 H    0.943
                            39 O    0.144
    41   1 H    0.960 --    40 N    0.943
    42   1 H    0.966 --    40 N    0.947
    43   7 N    3.320 --    38 C    1.204    44 H    0.947    45 H    0.943
                            39 O    0.144
    44   1 H    0.966 --    43 N    0.947
    45   1 H    0.960 --    43 N    0.943
    46   6 C    3.959 --    47 O    1.530    48 N    1.236    51 N    1.185
    47   8 O    1.892 --    46 C    1.530    48 N    0.148    51 N    0.135
    48   7 N    3.323 --    46 C    1.236    50 H    0.951    49 H    0.875
                            47 O    0.148
    49   1 H    0.942 --    48 N    0.875
    50   1 H    0.971 --    48 N    0.951
    51   7 N    3.298 --    46 C    1.185    52 H    0.949    53 H    0.946
                            47 O    0.135
    52   1 H    0.968 --    51 N    0.949
    53   1 H    0.963 --    51 N    0.946
 ---------------------------------------------------------------------------

Topologies differ in total number of bonds
Writing topology from bond orders to xtbtopo.mol

molecular dipole:
                 x           y           z       tot (Debye)
 q only:       -0.702       0.057      -0.629
   full:       -0.519       0.675      -0.581       2.618
molecular quadrupole (traceless):
                xx          xy          yy          xz          yz          zz
 q only:       40.749      77.675      -1.923     -21.156     -21.441     -38.827
  q+dip:       47.680      87.365      -4.722     -24.173     -23.768     -42.958
   full:       47.497      86.901      -4.289     -23.908     -24.090     -43.208

           -------------------------------------------------
          |               Frequency Printout                |
           -------------------------------------------------
 projected vibrational frequencies (cm⁻¹)
eigval :       -0.00    -0.00    -0.00     0.00     0.00     0.00
eigval :      -11.04     5.59     8.65    14.55    17.55    20.08
eigval :       24.61    29.11    38.56    40.03    46.42    53.87
eigval :       59.93    64.43    74.84    76.27    88.60    96.81
eigval :      103.52   115.18   117.24   125.25   132.08   172.91
eigval :      180.81   193.95   256.08   256.55   278.77   281.70
eigval :      315.16   318.67   325.10   327.13   357.79   359.35
eigval :      372.78   381.62   402.47   428.46   443.83   445.64
eigval :      454.31   457.38   463.16   466.30   471.99   472.78
eigval :      483.37   500.58   501.79   510.92   530.68   533.87
eigval :      545.82   569.63   571.20   581.75   637.16   669.84
eigval :      674.17   676.06   678.98   725.05   769.68   857.45
eigval :      895.00   931.12   946.64   951.14   974.21   994.79
eigval :      995.85   997.06  1004.89  1011.72  1015.25  1028.76
eigval :     1031.37  1040.12  1045.36  1081.43  1083.83  1097.20
eigval :     1101.17  1107.74  1114.56  1136.85  1175.92  1230.67
eigval :     1252.20  1284.38  1310.46  1338.63  1344.05  1347.43
eigval :     1351.84  1353.99  1364.52  1398.07  1404.53  1406.10
eigval :     1428.81  1435.90  1442.61  1447.10  1451.30  1456.31
eigval :     1457.14  1457.50  1464.98  1471.94  1473.94  1479.10
eigval :     1494.40  1496.28  1496.55  1500.13  1529.35  1665.11
eigval :     1715.96  1724.83  1729.63  2882.25  2954.24  2968.70
eigval :     2986.59  2992.29  3036.18  3039.88  3040.95  3041.94
eigval :     3045.43  3052.80  3054.10  3058.87  3062.48  3229.73
eigval :     3392.86  3432.71  3494.66  3495.69  3499.53  3500.11
eigval :     3504.10  3524.26  3525.44  3557.77  3558.78  3559.28
eigval :     3564.32  3564.49  3569.98
 reduced masses (amu)
   1: 12.69   2: 12.75   3: 12.59   4: 12.29   5: 12.40   6: 12.70   7: 11.14   8: 12.51
   9: 11.15  10: 12.03  11: 12.38  12: 11.94  13: 12.32  14: 12.03  15: 12.69  16: 12.16
  17: 13.10  18: 12.91  19: 12.61  20: 12.14  21: 13.84  22: 12.47  23: 14.06  24: 11.99
  25: 12.24  26: 11.70  27: 12.30  28: 12.49  29: 11.79  30: 12.52  31:  3.65  32: 10.42
  33: 10.39  34:  5.11  35:  5.62  36:  3.79  37:  9.61  38:  2.95  39:  3.35  40:  3.98
  41:  3.84  42:  4.94  43:  4.47  44:  3.21  45:  3.36  46:  8.62  47:  1.67  48:  1.80
  49:  8.34  50:  8.46  51:  3.47  52:  6.34  53:  4.39  54:  7.37  55:  8.46  56:  3.69
  57:  3.24  58:  8.48  59:  9.61  60:  9.61  61: 11.30  62:  9.15  63:  8.68  64:  4.06
  65:  4.00  66: 11.24  67: 11.99  68: 11.86  69: 10.00  70:  2.60  71:  9.32  72:  2.04
  73:  6.73  74:  8.51  75:  5.24  76:  5.15  77:  4.86  78:  8.82  79:  5.21  80:  8.75
  81:  7.64  82:  9.26  83:  8.00  84:  8.68  85:  8.39  86:  3.15  87:  4.92  88:  9.65
  89:  9.52  90:  7.76  91:  6.67  92:  5.35  93:  7.78  94:  8.71  95:  3.18  96:  5.00
  97:  6.20  98:  7.94  99:  6.64 100:  3.25 101:  3.94 102:  4.82 103:  5.84 104:  6.05
 105:  6.30 106:  2.59 107:  2.56 108:  2.73 109:  2.27 110:  1.95 111:  1.81 112:  3.08
 113:  1.68 114:  2.84 115:  2.08 116:  3.02 117:  2.85 118:  1.74 119:  1.63 120:  1.62
 121:  2.38 122:  7.70 123:  7.71 124:  7.73 125: 10.21 126: 12.57 127: 12.80 128: 12.83
 129: 12.85 130:  1.77 131:  1.69 132:  1.83 133:  1.73 134:  1.85 135:  1.58 136:  1.75
 137:  1.74 138:  1.37 139:  1.96 140:  1.81 141:  1.73 142:  1.82 143:  1.84 144:  1.77
 145:  1.61 146:  1.61 147:  1.45 148:  1.44 149:  1.46 150:  1.44 151:  1.46 152:  1.91
 153:  2.05 154:  2.04 155:  2.19 156:  2.17 157:  2.18 158:  2.19 159:  2.18
 IR intensities (km·mol⁻¹)
   1:  1.96   2:  1.96   3:  0.15   4:  1.08   5:  0.78   6:  2.91   7:  0.01   8:  0.82
   9:  0.79  10:  3.05  11:  2.92  12:  1.25  13:  3.61  14:  0.28  15:  3.38  16:  1.61
  17:  0.47  18:  2.20  19:  0.46  20:  4.13  21:  9.31  22:  4.46  23:  1.00  24:  2.41
  25: 16.00  26: 15.68  27:  7.06  28: 21.79  29:  8.52  30: 10.91  31: 13.06  32:  8.73
  33:  6.50  34: 25.22  35:  4.26  36: 18.78  37:  1.01  38:189.99  39:368.69  40: 98.76
  41:383.40  42: 62.26  43:  0.45  44:  2.94  45:170.25  46:  0.77  47:  4.10  48:  6.35
  49:  0.43  50:  3.37  51: 51.82  52:201.65  53:212.78  54: 20.55  55: 21.65  56:105.70
  57: 38.59  58: 95.57  59: 33.89  60: 56.50  61: 25.78  62: 34.90  63: 18.86  64:  9.78
  65: 81.07  66: 17.93  67: 30.50  68: 38.49  69: 98.66  70:220.66  71:  4.33  72:271.97
  73:  1.51  74:  6.40  75:  1.43  76:  1.56  77:  0.10  78:  0.12  79:  9.62  80:  0.60
  81: 21.11  82: 24.36  83: 22.11  84: 14.86  85:  9.30  86:  1.29  87: 26.70  88:  2.18
  89:  0.83  90:  5.93  91: 11.27  92: 20.07  93:  1.09  94: 51.75  95: 15.13  96:  2.57
  97:  3.01  98: 19.36  99:  9.30 100:  5.54 101: 52.80 102: 16.24 103: 74.88 104: 72.45
 105:181.81 106:  1.70 107: 16.35 108:132.18 109:  3.89 110:  0.93 111:  0.51 112: 36.33
 113:  0.97 114:  9.10 115: 10.12 116: 15.46 117:  5.44 118:  9.60 119: 16.95 120: 20.62
 121: 22.32 122:203.04 123:491.95 124:803.40 125:535.71 126:****** 127:****** 128:429.28
 129:494.88 130: 39.16 131:457.20 132:210.47 133:572.61 134:123.61 135:  7.58 136: 10.20
 137: 12.79 138: 23.37 139:  7.23 140: 41.25 141: 28.47 142:  9.25 143:  9.25 144:******
 145: 82.90 146:368.62 147: 12.97 148: 39.80 149:  4.54 150: 37.96 151:  7.45 152: 12.16
 153: 98.58 154: 41.83 155: 16.27 156:  6.99 157: 19.21 158: 12.19 159: 10.90
 Raman intensities (amu)
Molecule has no symmetry elements
It seems to be the C1 point group
   1:  0.00   2:  0.00   3:  0.00   4:  0.00   5:  0.00   6:  0.00   7:  0.00   8:  0.00
   9:  0.00  10:  0.00  11:  0.00  12:  0.00  13:  0.00  14:  0.00  15:  0.00  16:  0.00
  17:  0.00  18:  0.00  19:  0.00  20:  0.00  21:  0.00  22:  0.00  23:  0.00  24:  0.00
  25:  0.00  26:  0.00  27:  0.00  28:  0.00  29:  0.00  30:  0.00  31:  0.00  32:  0.00
  33:  0.00  34:  0.00  35:  0.00  36:  0.00  37:  0.00  38:  0.00  39:  0.00  40:  0.00
  41:  0.00  42:  0.00  43:  0.00  44:  0.00  45:  0.00  46:  0.00  47:  0.00  48:  0.00
  49:  0.00  50:  0.00  51:  0.00  52:  0.00  53:  0.00  54:  0.00  55:  0.00  56:  0.00
  57:  0.00  58:  0.00  59:  0.00  60:  0.00  61:  0.00  62:  0.00  63:  0.00  64:  0.00
  65:  0.00  66:  0.00  67:  0.00  68:  0.00  69:  0.00  70:  0.00  71:  0.00  72:  0.00
  73:  0.00  74:  0.00  75:  0.00  76:  0.00  77:  0.00  78:  0.00  79:  0.00  80:  0.00
  81:  0.00  82:  0.00  83:  0.00  84:  0.00  85:  0.00  86:  0.00  87:  0.00  88:  0.00
  89:  0.00  90:  0.00  91:  0.00  92:  0.00  93:  0.00  94:  0.00  95:  0.00  96:  0.00
  97:  0.00  98:  0.00  99:  0.00 100:  0.00 101:  0.00 102:  0.00 103:  0.00 104:  0.00
 105:  0.00 106:  0.00 107:  0.00 108:  0.00 109:  0.00 110:  0.00 111:  0.00 112:  0.00
 113:  0.00 114:  0.00 115:  0.00 116:  0.00 117:  0.00 118:  0.00 119:  0.00 120:  0.00
 121:  0.00 122:  0.00 123:  0.00 124:  0.00 125:  0.00 126:  0.00 127:  0.00 128:  0.00
 129:  0.00 130:  0.00 131:  0.00 132:  0.00 133:  0.00 134:  0.00 135:  0.00 136:  0.00
 137:  0.00 138:  0.00 139:  0.00 140:  0.00 141:  0.00 142:  0.00 143:  0.00 144:  0.00
 145:  0.00 146:  0.00 147:  0.00 148:  0.00 149:  0.00 150:  0.00 151:  0.00 152:  0.00
 153:  0.00 154:  0.00 155:  0.00 156:  0.00 157:  0.00 158:  0.00 159:  0.00
 output can be read by thermo (or use thermo option).
 writing <g98.out> molden fake output.
 recommended (thermochemical) frequency scaling factor: 1.0
           -------------------------------------------------
          |             Thermodynamic Functions             |
           -------------------------------------------------

c1  symmetry found (for desy threshold:  0.10E+00) used in thermo
 inverting freq            1   11.040068807081230     

          ...................................................
          :                      SETUP                      :
          :.................................................:
          :  # frequencies                         153      :
          :  # imaginary freq.                       0      :
          :  linear?                             false      :
          :  only rotor calc.                    false      :
          :  symmetry                               c1      :
          :  rotational number                       1      :
          :  scaling factor                  1.0000000      :
          :  rotor cutoff                   50.0000000 cm⁻¹ :
          :  imag. cutoff                  -20.0000000 cm⁻¹ :
          :.................................................:

    mode    ω/cm⁻¹     T·S(HO)/kcal·mol⁻¹    T·S(FR)/kcal·mol⁻¹   T·S(vib)
   ------------------------------------------------------------------------
       1     11.04    -2.32988 (  0.24%)    -1.50394 ( 99.76%)    -1.50590
       2      5.59    -2.73335 (  0.02%)    -1.70562 ( 99.98%)    -1.70578
       3      8.65    -2.47446 (  0.09%)    -1.57622 ( 99.91%)    -1.57702
       4     14.55    -2.16652 (  0.71%)    -1.42225 ( 99.29%)    -1.42755
       5     17.55    -2.05536 (  1.50%)    -1.36666 ( 98.50%)    -1.37695
       6     20.08    -1.97559 (  2.54%)    -1.32675 ( 97.46%)    -1.34321
       7     24.61    -1.85515 (  5.55%)    -1.26648 ( 94.45%)    -1.29913
       8     29.11    -1.75582 ( 10.31%)    -1.21675 ( 89.69%)    -1.27232
       9     38.56    -1.58963 ( 26.13%)    -1.13348 ( 73.87%)    -1.25269
      10     40.03    -1.56754 ( 29.12%)    -1.12240 ( 70.88%)    -1.25203
      11     46.42    -1.48006 ( 42.63%)    -1.07851 ( 57.37%)    -1.24971
      12     53.87    -1.39233 ( 57.41%)    -1.03443 ( 42.59%)    -1.23989
      13     59.93    -1.32961 ( 67.36%)    -1.00288 ( 32.64%)    -1.22297
      14     64.43    -1.28702 ( 73.38%)    -0.98142 ( 26.62%)    -1.20568
      15     74.84    -1.19907 ( 83.39%)    -0.93704 ( 16.61%)    -1.15555
      16     76.27    -1.18806 ( 84.41%)    -0.93147 ( 15.59%)    -1.14804
      17     88.60    -1.10041 ( 90.79%)    -0.88707 (  9.21%)    -1.08076
      18     96.81    -1.04876 ( 93.36%)    -0.86081 (  6.64%)    -1.03627
      19    103.52    -1.00980 ( 94.84%)    -0.84095 (  5.16%)    -1.00109
      20    115.18    -0.94802 ( 96.57%)    -0.80934 (  3.43%)    -0.94327
      21    117.24    -0.93779 ( 96.80%)    -0.80408 (  3.20%)    -0.93351
      22    125.25    -0.89973 ( 97.52%)    -0.78450 (  2.48%)    -0.89687
      23    132.08    -0.86928 ( 97.99%)    -0.76879 (  2.01%)    -0.86726
      24    172.91    -0.71664 ( 99.31%)    -0.68898 (  0.69%)    -0.71645
      25    180.81    -0.69172 ( 99.42%)    -0.67575 (  0.58%)    -0.69162
      26    193.95    -0.65288 ( 99.56%)    -0.65497 (  0.44%)    -0.65289
      27    256.08    -0.50339 ( 99.85%)    -0.57265 (  0.15%)    -0.50349
      28    256.55    -0.50242 ( 99.86%)    -0.57210 (  0.14%)    -0.50252
      29    278.77    -0.45951 ( 99.90%)    -0.54750 (  0.10%)    -0.45961
      30    281.70    -0.45418 ( 99.90%)    -0.54440 (  0.10%)    -0.45426
   ------------------------------------------------------------------------

   temp. (K)  partition function   enthalpy   heat capacity  entropy
                                   cal/mol     cal/K/mol   cal/K/mol   J/K/mol
 298.15  VIB  0.165E+21            20034.741    102.270    135.561
         ROT  0.242E+08              888.752      2.981     36.770
         INT  0.399E+28            20923.494    105.251    172.331
         TR   0.618E+28             1481.254      4.968     43.384
         TOT                       22404.7477   110.2187   215.7154   902.5531

       T/K    H(0)-H(T)+PV         H(T)/Eh          T*S/Eh         G(T)/Eh
   ------------------------------------------------------------------------
    298.15    0.357042E-01    0.474081E+00    0.102493E+00    0.371587E+00
   ------------------------------------------------------------------------

         :::::::::::::::::::::::::::::::::::::::::::::::::::::
         ::                  THERMODYNAMIC                  ::
         :::::::::::::::::::::::::::::::::::::::::::::::::::::
         :: total free energy         -80.559869688292 Eh   ::
         ::.................................................::
         :: total energy              -80.931457044338 Eh   ::
         :: zero point energy           0.438376445816 Eh   ::
         :: G(RRHO) w/o ZPVE           -0.066789089771 Eh   ::
         :: G(RRHO) contrib.            0.371587356045 Eh   ::
         :::::::::::::::::::::::::::::::::::::::::::::::::::::
imag cut-off (cm-1) :    5.00
 found            1  significant imaginary frequency
 writing imag mode distorted coords to xtbhess.xyz
 for further optimization.

           -------------------------------------------------
          | TOTAL ENERGY              -80.931457044338 Eh   |
          | TOTAL ENTHALPY            -80.457376360397 Eh   |
          | TOTAL FREE ENERGY         -80.559869688292 Eh   |
          | GRADIENT NORM               0.000060077170 Eh/α |
          | HOMO-LUMO GAP               5.686064840128 eV   |
           -------------------------------------------------

------------------------------------------------------------------------
 * finished run on 2024/01/10 at 15:39:20.906     
------------------------------------------------------------------------
 total:
 * wall-time:     0 d,  0 h,  0 min, 13.651 sec
 *  cpu-time:     0 d,  0 h,  0 min, 13.544 sec
 * ratio c/w:     0.992 speedup
 SCF:
 * wall-time:     0 d,  0 h,  0 min,  0.085 sec
 *  cpu-time:     0 d,  0 h,  0 min,  0.054 sec
 * ratio c/w:     0.633 speedup
 analytical hessian:
 * wall-time:     0 d,  0 h,  0 min, 13.539 sec
 *  cpu-time:     0 d,  0 h,  0 min, 13.463 sec
 * ratio c/w:     0.994 speedup

