 Entering Gaussian System
 *********************************************
 Gaussian 98:
 frequency output generated by the xtb code
 *********************************************
                         Standard orientation:
 --------------------------------------------------------------------
  Center     Atomic     Atomic              Coordinates (Angstroms)
  Number     Number      Type              X           Y           Z
 --------------------------------------------------------------------
    1          8             0       -1.082194   -3.073463    2.229331
    2          6             0        0.131177   -2.950015    2.934919
    3          1             0       -0.062661   -2.665471    3.979153
    4          1             0        0.674832   -3.903459    2.945316
    5          6             0        1.058081   -1.935280    2.261613
    6          1             0        1.329684   -2.286812    1.263360
    7          1             0        1.963445   -1.879161    2.869854
    8          7             0        0.524958   -0.559233    2.092973
    9          6             0        1.651384    0.322726    1.739664
   10          1             0        2.359620    0.378367    2.563861
   11          1             0        1.260345    1.318698    1.534576
   12          1             0        2.147840   -0.077433    0.858522
   13          6             0       -0.114519   -0.051561    3.315147
   14          1             0        0.565434   -0.135185    4.160910
   15          1             0       -1.025928   -0.607346    3.518965
   16          1             0       -0.366876    0.997252    3.151294
   17          6             0       -0.446282   -0.508990    0.985922
   18          1             0        0.036768   -0.833997    0.067204
   19          1             0       -0.793437    0.516593    0.875328
   20          1             0       -1.283265   -1.168426    1.194609
   21          1             0       -1.544176   -3.867923    2.513695
   22          6             0        2.206734   -2.614039   -1.465811
   23          8             0        2.209547   -1.675518   -0.670508
   24          7             0        1.106256   -2.985890   -2.144966
   25          1             0        0.278127   -2.401437   -2.120660
   26          1             0        1.157272   -3.692295   -2.856285
   27          7             0        3.314880   -3.373959   -1.657099
   28          1             0        3.355019   -4.098216   -2.350049
   29          1             0        4.165841   -3.110706   -1.194107
   30          6             0        0.661508    1.857779   -1.519181
   31          8             0       -0.482426    2.318893   -1.596433
   32          7             0        1.670630    2.579077   -0.960835
   33          1             0        1.503547    3.553408   -0.777043
   34          1             0        2.624238    2.288875   -1.083699
   35          7             0        0.970201    0.632158   -1.963501
   36          1             0        1.830097    0.185764   -1.687410
   37          1             0        0.196255   -0.000036   -2.182307
   38          6             0       -0.970461    3.697051    1.649176
   39          8             0       -0.445560    2.614080    1.890740
   40          7             0       -1.103825    4.173610    0.396691
   41          1             0       -0.929562    3.535043   -0.382297
   42          1             0       -1.671430    4.982901    0.219228
   43          7             0       -1.446341    4.491092    2.647487
   44          1             0       -1.736019    5.435551    2.468570
   45          1             0       -1.223351    4.247269    3.596077
   46          6             0       -2.249196   -0.728045   -2.483200
   47          8             0       -1.127491   -1.185223   -2.244517
   48          7             0       -3.265971   -1.544752   -2.854954
   49          1             0       -3.071047   -2.516968   -3.011029
   50          1             0       -4.161393   -1.187712   -3.132618
   51          7             0       -2.532943    0.574189   -2.355959
   52          1             0       -3.439019    0.934065   -2.592697
   53          1             0       -1.796331    1.237669   -2.098330
 --------------------------------------------------------------------
     1 basis functions        1 primitive gaussians
     1 alpha electrons        1 beta electrons

 Harmonic frequencies (cm**-1), IR intensities (km*mol⁻¹),
 Raman scattering activities (A**4/amu), Raman depolarization ratios,
 reduced masses (AMU), force constants (mDyne/A) and normal coordinates:
                      1                      2                      3
                        a                      a                      a 
 Frequencies --    12.3994                16.8349                22.3096
 Red. masses --    12.4819                12.6208                13.2051
 Frc consts  --     0.0000                 0.0000                 0.0000
 IR Inten    --     0.0557                 0.5343                 0.1875
 Raman Activ --     0.0000                 0.0000                 0.0000
 Depolar     --     0.0000                 0.0000                 0.0000
 Atom AN      X      Y      Z        X      Y      Z        X      Y      Z
   1   8    -0.29   0.13  -0.15    -0.00  -0.09  -0.21     0.21  -0.18  -0.49
   2   6    -0.25   0.00  -0.12    -0.05  -0.04  -0.10     0.03  -0.03  -0.20
   3   1    -0.07  -0.01  -0.03    -0.03  -0.02  -0.03    -0.05  -0.01  -0.07
   4   1    -0.09  -0.01  -0.04    -0.00  -0.01  -0.02     0.04   0.01  -0.03
   5   6    -0.17  -0.04  -0.08    -0.04  -0.01  -0.04     0.06   0.06  -0.03
   6   1    -0.05  -0.01  -0.02     0.00   0.00  -0.01     0.05   0.03  -0.00
   7   1    -0.05  -0.03  -0.02    -0.02   0.00  -0.00    -0.00   0.02   0.02
   8   7    -0.09   0.00  -0.04    -0.07  -0.02  -0.04     0.01   0.04  -0.03
   9   6    -0.02  -0.06   0.01    -0.07   0.01  -0.00     0.00   0.08   0.04
  10   1    -0.01  -0.04   0.01    -0.03   0.00   0.00    -0.01   0.02   0.02
  11   1     0.01  -0.01   0.01    -0.02   0.00  -0.00    -0.01   0.02   0.02
  12   1    -0.01  -0.02   0.00    -0.01   0.01   0.00     0.01   0.04   0.01
  13   6    -0.07   0.00  -0.03    -0.10  -0.04  -0.05    -0.05  -0.00  -0.04
  14   1    -0.03  -0.02  -0.01    -0.04  -0.01  -0.01    -0.02  -0.00  -0.00
  15   1    -0.03   0.01  -0.02    -0.03  -0.02  -0.02    -0.01  -0.01  -0.02
  16   1     0.00   0.01   0.00    -0.04  -0.01  -0.01    -0.02  -0.00  -0.01
  17   6    -0.06   0.10  -0.05    -0.04  -0.02  -0.06     0.05   0.03  -0.06
  18   1    -0.02   0.03  -0.02    -0.00  -0.00  -0.02     0.03   0.02  -0.01
  19   1     0.00   0.04  -0.01    -0.01  -0.01  -0.02     0.01   0.01  -0.02
  20   1    -0.03   0.04  -0.02    -0.01  -0.01  -0.03     0.02   0.00  -0.03
  21   1    -0.09   0.04  -0.05     0.00  -0.03  -0.06     0.06  -0.06  -0.15
  22   6     0.11   0.07  -0.04     0.03   0.01  -0.01    -0.01  -0.02   0.12
  23   8     0.04   0.05  -0.00     0.06  -0.00   0.01     0.03   0.12  -0.02
  24   7     0.12  -0.05   0.02    -0.01  -0.02   0.07     0.05   0.06   0.01
  25   1     0.02  -0.03   0.01     0.00  -0.00   0.03     0.02   0.02  -0.02
  26   1     0.05   0.01  -0.02    -0.00   0.01   0.01    -0.00  -0.04   0.06
  27   7     0.21   0.26  -0.17     0.05   0.06  -0.11    -0.12  -0.29   0.49
  28   1     0.06   0.05  -0.02     0.00   0.00  -0.02    -0.01  -0.05   0.10
  29   1     0.05   0.07  -0.03     0.01   0.01  -0.03    -0.02  -0.04   0.10
  30   6    -0.07  -0.03   0.03     0.15   0.02  -0.06    -0.06  -0.01   0.01
  31   8    -0.12  -0.11   0.11     0.20   0.08  -0.10    -0.09  -0.03   0.06
  32   7    -0.10   0.00   0.03     0.19   0.00  -0.08    -0.07  -0.03   0.04
  33   1    -0.04  -0.01   0.03     0.06   0.01  -0.04    -0.02  -0.01   0.03
  34   1    -0.02   0.02   0.00     0.05  -0.01  -0.02    -0.02   0.00  -0.00
  35   7    -0.01   0.01  -0.05     0.12  -0.00  -0.02    -0.05   0.03  -0.08
  36   1     0.01   0.02  -0.02     0.03  -0.01  -0.00    -0.01   0.01  -0.03
  37   1     0.01  -0.01  -0.01     0.02   0.01  -0.00    -0.01   0.01  -0.03
  38   6     0.15   0.09   0.05    -0.10  -0.04  -0.09     0.04   0.07   0.04
  39   8     0.15   0.09   0.07    -0.17  -0.06  -0.08     0.00   0.06   0.06
  40   7     0.07   0.03   0.03     0.05   0.01  -0.09     0.04   0.05   0.03
  41   1    -0.01  -0.01   0.01     0.04   0.01  -0.03    -0.00   0.00   0.01
  42   1     0.02   0.01   0.01     0.02   0.01  -0.03     0.02   0.02   0.01
  43   7     0.28   0.17   0.05    -0.21  -0.07  -0.12     0.12   0.13   0.03
  44   1     0.08   0.04   0.01    -0.05  -0.02  -0.03     0.04   0.04   0.00
  45   1     0.09   0.06   0.01    -0.09  -0.03  -0.03     0.03   0.04   0.01
  46   6     0.03  -0.17   0.08     0.01   0.06   0.27    -0.04  -0.03   0.00
  47   8     0.09  -0.11  -0.00     0.05   0.06   0.12    -0.01  -0.01  -0.14
  48   7     0.06  -0.24   0.14    -0.09   0.06   0.56    -0.06  -0.05   0.07
  49   1     0.03  -0.06   0.02    -0.03   0.02   0.14    -0.01  -0.01  -0.02
  50   1     0.01  -0.08   0.05    -0.03   0.02   0.16    -0.02  -0.01   0.03
  51   7    -0.05  -0.20   0.14     0.07   0.08   0.25    -0.08  -0.05   0.10
  52   1    -0.02  -0.07   0.06     0.01   0.02   0.11    -0.03  -0.02   0.06
  53   1    -0.02  -0.04   0.03     0.03   0.02   0.03    -0.02  -0.01   0.02
                      4                      5                      6
                        a                      a                      a 
 Frequencies --    31.9723                34.0785                39.2087
 Red. masses --    12.8265                12.0697                12.7480
 Frc consts  --     0.0000                 0.0000                 0.0000
 IR Inten    --     0.6244                 2.8510                 2.1191
 Raman Activ --     0.0000                 0.0000                 0.0000
 Depolar     --     0.0000                 0.0000                 0.0000
 Atom AN      X      Y      Z        X      Y      Z        X      Y      Z
   1   8     0.24  -0.28  -0.26     0.08  -0.18   0.24    -0.07   0.04  -0.03
   2   6     0.08  -0.05  -0.03     0.08  -0.05   0.17    -0.08  -0.04   0.02
   3   1    -0.04  -0.01  -0.02     0.03  -0.00   0.05    -0.03  -0.01   0.00
   4   1     0.06   0.01   0.02     0.04  -0.01   0.06    -0.04  -0.02   0.01
   5   6     0.04   0.05   0.08     0.00  -0.03   0.10    -0.01  -0.08   0.06
   6   1     0.04   0.03   0.02     0.01  -0.02   0.04     0.01  -0.02   0.02
   7   1    -0.00   0.03   0.04     0.00   0.02   0.03    -0.01  -0.03   0.03
   8   7    -0.05   0.01   0.08    -0.10  -0.08   0.03     0.06  -0.06   0.05
   9   6    -0.10   0.07   0.06    -0.15  -0.01   0.03     0.11  -0.09   0.13
  10   1    -0.03   0.03   0.02    -0.05   0.02   0.01     0.02  -0.03   0.05
  11   1    -0.04   0.01   0.02    -0.06  -0.01  -0.01     0.04  -0.02   0.03
  12   1    -0.02   0.03   0.02    -0.03  -0.00   0.02     0.04  -0.03   0.04
  13   6    -0.07  -0.02   0.07    -0.18  -0.07  -0.02    -0.00  -0.04   0.01
  14   1    -0.02   0.00   0.02    -0.06   0.00   0.00    -0.02  -0.02   0.01
  15   1    -0.01  -0.02   0.02    -0.04  -0.04  -0.01    -0.01  -0.01  -0.02
  16   1    -0.03  -0.01   0.02    -0.07  -0.03  -0.02     0.01  -0.01  -0.00
  17   6    -0.05  -0.05   0.07    -0.06  -0.20  -0.01     0.13  -0.01  -0.02
  18   1    -0.01  -0.01   0.02     0.00  -0.05   0.00     0.05   0.00   0.00
  19   1    -0.03  -0.02   0.02    -0.04  -0.07  -0.02     0.05   0.00  -0.01
  20   1    -0.01  -0.03   0.02    -0.00  -0.08  -0.00     0.03   0.00  -0.02
  21   1     0.08  -0.09  -0.08     0.03  -0.05   0.08    -0.03   0.02  -0.01
  22   6    -0.04   0.04   0.05     0.07   0.09  -0.06     0.04   0.11   0.05
  23   8     0.01   0.01   0.09    -0.05  -0.01   0.07     0.09   0.17   0.02
  24   7    -0.17  -0.14   0.34     0.22   0.26  -0.37     0.03   0.13   0.08
  25   1    -0.05  -0.04   0.11     0.04   0.05  -0.09     0.01   0.03   0.02
  26   1    -0.05  -0.00   0.05     0.08   0.07  -0.10    -0.00   0.02   0.04
  27   7     0.05   0.27  -0.31     0.08   0.06   0.08     0.02   0.06   0.11
  28   1    -0.02   0.03  -0.03     0.06   0.06  -0.02     0.01   0.03   0.02
  29   1     0.02   0.06  -0.08     0.01   0.01   0.06     0.01   0.03   0.00
  30   6    -0.01  -0.05   0.01    -0.04  -0.00  -0.00    -0.07   0.02  -0.03
  31   8    -0.00  -0.03  -0.01    -0.03   0.03  -0.07    -0.06   0.07  -0.16
  32   7     0.01  -0.05  -0.03    -0.04  -0.01   0.01    -0.11  -0.02   0.08
  33   1     0.01  -0.01  -0.02    -0.00  -0.00  -0.01    -0.03  -0.00   0.02
  34   1    -0.00  -0.02  -0.01    -0.01  -0.01   0.01    -0.03  -0.02   0.05
  35   7    -0.05  -0.08   0.07    -0.06  -0.02   0.05    -0.07   0.02  -0.01
  36   1    -0.01  -0.02   0.02    -0.02  -0.01   0.03    -0.03  -0.00   0.03
  37   1    -0.02  -0.02   0.03    -0.02  -0.00   0.01    -0.02   0.01  -0.02
  38   6     0.04   0.06  -0.01     0.08   0.04  -0.08     0.06  -0.09  -0.04
  39   8    -0.13  -0.00   0.05    -0.19  -0.09  -0.10     0.15  -0.09  -0.12
  40   7     0.17   0.06  -0.02     0.25   0.12  -0.07    -0.09  -0.09  -0.03
  41   1     0.02   0.00  -0.00     0.03   0.02  -0.02    -0.03  -0.01  -0.02
  42   1     0.08   0.04  -0.02     0.11   0.07  -0.02    -0.03  -0.03   0.01
  43   7     0.14   0.18  -0.05     0.26   0.13  -0.07     0.13  -0.14   0.01
  44   1     0.07   0.06  -0.02     0.12   0.05  -0.01     0.02  -0.04   0.01
  45   1     0.01   0.04  -0.01     0.03   0.01  -0.02     0.06  -0.04  -0.00
  46   6    -0.03  -0.00  -0.04    -0.06   0.01   0.01    -0.06   0.03  -0.05
  47   8    -0.10  -0.04   0.19    -0.05  -0.01  -0.08    -0.09   0.02   0.04
  48   7    -0.01   0.02  -0.16    -0.09   0.02   0.06    -0.18  -0.03   0.38
  49   1    -0.01  -0.00   0.00    -0.03   0.01   0.00    -0.05  -0.01   0.12
  50   1     0.01   0.01  -0.07    -0.03   0.01   0.03    -0.01   0.00  -0.00
  51   7     0.02   0.03  -0.22    -0.05   0.00   0.07     0.07   0.11  -0.58
  52   1     0.02   0.01  -0.11    -0.02   0.00   0.03     0.00   0.02  -0.10
  53   1     0.00   0.00  -0.04    -0.01   0.00   0.01     0.01   0.03  -0.13
                      7                      8                      9
                        a                      a                      a 
 Frequencies --    42.0051                45.1158                47.8014
 Red. masses --    12.3613                12.6580                12.2702
 Frc consts  --     0.0000                 0.0000                 0.0000
 IR Inten    --     1.1816                 1.1348                 6.0842
 Raman Activ --     0.0000                 0.0000                 0.0000
 Depolar     --     0.0000                 0.0000                 0.0000
 Atom AN      X      Y      Z        X      Y      Z        X      Y      Z
   1   8    -0.05  -0.10   0.07     0.05  -0.14  -0.33     0.00  -0.02   0.03
   2   6     0.00  -0.06  -0.01    -0.16   0.03   0.03    -0.04  -0.02   0.11
   3   1     0.02  -0.01  -0.00    -0.13   0.03  -0.01    -0.03   0.00   0.02
   4   1     0.00  -0.02  -0.01    -0.03   0.02   0.08    -0.02  -0.01   0.05
   5   6    -0.05  -0.06  -0.08    -0.04   0.01   0.18     0.02  -0.07   0.14
   6   1    -0.03  -0.02  -0.03     0.03   0.00   0.06     0.03  -0.03   0.05
   7   1    -0.00  -0.01  -0.04    -0.04  -0.00   0.09    -0.01  -0.01   0.06
   8   7    -0.07  -0.07  -0.07     0.04   0.03   0.11     0.05  -0.08   0.02
   9   6    -0.09  -0.06  -0.14     0.09  -0.06   0.06     0.09  -0.07   0.15
  10   1    -0.02  -0.01  -0.05     0.03  -0.02   0.02    -0.00  -0.02   0.07
  11   1    -0.03  -0.02  -0.04     0.04  -0.01   0.00     0.03  -0.02   0.03
  12   1    -0.04  -0.02  -0.04     0.02  -0.04   0.02     0.05  -0.02   0.06
  13   6    -0.00  -0.06  -0.04     0.07   0.14   0.08    -0.13  -0.04  -0.09
  14   1     0.01  -0.02  -0.02     0.02   0.04   0.02    -0.07  -0.00   0.00
  15   1     0.00  -0.02   0.00     0.01   0.07   0.03    -0.05  -0.01  -0.06
  16   1    -0.01  -0.02  -0.01     0.04   0.04   0.00    -0.03  -0.01  -0.05
  17   6    -0.13  -0.09  -0.01     0.04   0.03   0.10     0.20  -0.11  -0.12
  18   1    -0.05  -0.02  -0.01     0.00  -0.03   0.04     0.10  -0.03  -0.01
  19   1    -0.04  -0.03   0.00     0.04   0.01   0.01     0.06  -0.04  -0.05
  20   1    -0.03  -0.03   0.01    -0.00   0.03   0.04     0.06  -0.04  -0.07
  21   1    -0.01  -0.02   0.03     0.01  -0.04  -0.11    -0.01   0.00   0.01
  22   6    -0.02  -0.06   0.04    -0.01  -0.04  -0.03    -0.04   0.06   0.11
  23   8     0.02   0.01  -0.05    -0.13  -0.25   0.21     0.00   0.12   0.06
  24   7    -0.04  -0.08   0.08     0.09   0.16  -0.31    -0.12  -0.08   0.32
  25   1    -0.01  -0.01   0.02     0.01   0.02  -0.04    -0.02  -0.01   0.06
  26   1    -0.03  -0.04   0.04     0.04   0.07  -0.11    -0.03  -0.01   0.07
  27   7    -0.07  -0.17   0.15     0.01   0.01  -0.08    -0.00   0.16  -0.01
  28   1    -0.02  -0.04   0.03     0.03   0.04  -0.06    -0.02   0.01   0.03
  29   1    -0.01  -0.02   0.01    -0.01  -0.03   0.03     0.00   0.05  -0.01
  30   6    -0.04   0.22  -0.08    -0.01   0.03   0.00    -0.04   0.08  -0.06
  31   8    -0.09   0.15  -0.08    -0.00   0.03  -0.08    -0.04   0.09  -0.13
  32   7    -0.05   0.42  -0.31    -0.00   0.11  -0.12    -0.07   0.10  -0.04
  33   1    -0.03   0.12  -0.12     0.00   0.04  -0.07    -0.02   0.03  -0.01
  34   1    -0.01   0.12  -0.08    -0.00   0.02  -0.01    -0.02   0.02   0.01
  35   7     0.01   0.18   0.10    -0.03  -0.05   0.21    -0.02   0.08  -0.04
  36   1     0.02   0.08   0.01    -0.00  -0.00   0.06    -0.01   0.03   0.00
  37   1     0.01   0.03   0.06    -0.01  -0.02   0.07    -0.00   0.02  -0.02
  38   6     0.03  -0.02   0.02     0.02  -0.01  -0.07     0.06  -0.09  -0.10
  39   8    -0.05  -0.08  -0.06     0.25   0.08  -0.13     0.13  -0.10  -0.24
  40   7    -0.02   0.04   0.06    -0.21  -0.07  -0.07    -0.05  -0.02  -0.07
  41   1    -0.03   0.02   0.00    -0.04  -0.01  -0.02    -0.02   0.01  -0.03
  42   1     0.01   0.03   0.03    -0.09  -0.04  -0.01    -0.02  -0.01   0.01
  43   7     0.20  -0.01   0.09    -0.01  -0.08  -0.04     0.12  -0.18  -0.02
  44   1     0.07   0.00   0.04    -0.04  -0.03  -0.01     0.02  -0.05   0.02
  45   1     0.06  -0.02   0.02     0.05  -0.00  -0.02     0.06  -0.06  -0.01
  46   6     0.11  -0.02   0.09    -0.02   0.00   0.08    -0.02   0.05  -0.02
  47   8     0.11   0.05   0.33    -0.06  -0.01   0.23     0.02   0.07  -0.23
  48   7     0.22  -0.09   0.00     0.04   0.02  -0.11     0.01   0.08  -0.19
  49   1     0.07  -0.03   0.06     0.00  -0.00   0.02     0.01   0.03  -0.10
  50   1     0.06  -0.05  -0.02    -0.00  -0.00  -0.00    -0.02   0.02   0.02
  51   7     0.06  -0.02  -0.08    -0.04  -0.00   0.10    -0.13  -0.01   0.40
  52   1     0.02  -0.02  -0.07     0.01   0.00  -0.03    -0.03   0.00   0.10
  53   1     0.00   0.01  -0.01    -0.01   0.00   0.02    -0.03   0.00   0.07
                     10                     11                     12
                        a                      a                      a 
 Frequencies --    48.7829                60.2869                69.1614
 Red. masses --    13.0708                12.7075                12.2671
 Frc consts  --     0.0000                 0.0000                 0.0000
 IR Inten    --     1.6021                 3.9711                 0.4304
 Raman Activ --     0.0000                 0.0000                 0.0000
 Depolar     --     0.0000                 0.0000                 0.0000
 Atom AN      X      Y      Z        X      Y      Z        X      Y      Z
   1   8     0.13  -0.09   0.00    -0.02  -0.02  -0.02    -0.04   0.10  -0.09
   2   6     0.05   0.04   0.08    -0.02   0.02  -0.02    -0.05  -0.00  -0.04
   3   1    -0.01   0.03   0.01    -0.00   0.02  -0.01    -0.02  -0.01  -0.01
   4   1     0.03   0.02   0.06    -0.00   0.01   0.01    -0.03  -0.01  -0.02
   5   6     0.05   0.04   0.07    -0.02  -0.02  -0.08     0.02  -0.02   0.03
   6   1     0.03  -0.00   0.03    -0.02  -0.02  -0.02     0.01   0.00   0.01
   7   1     0.00   0.03   0.04     0.00  -0.01  -0.03     0.00  -0.02   0.02
   8   7     0.00   0.01  -0.04     0.01  -0.01  -0.10     0.10   0.01   0.07
   9   6    -0.01   0.03  -0.04     0.01  -0.05  -0.18     0.13  -0.03   0.08
  10   1    -0.01   0.02  -0.01     0.01  -0.00  -0.06     0.04  -0.02   0.02
  11   1    -0.01   0.00  -0.03     0.01  -0.02  -0.07     0.05  -0.00   0.03
  12   1     0.01  -0.00  -0.00    -0.00  -0.03  -0.05     0.03  -0.01   0.02
  13   6    -0.08   0.06  -0.10     0.09   0.06  -0.08     0.12   0.01   0.08
  14   1    -0.04   0.04  -0.02     0.04   0.02  -0.03     0.04  -0.00   0.02
  15   1    -0.02   0.02  -0.04     0.02   0.03  -0.00     0.03   0.01   0.03
  16   1    -0.03   0.01  -0.05     0.03   0.02  -0.03     0.04   0.00   0.02
  17   6     0.06  -0.10  -0.09    -0.06  -0.02  -0.03     0.09   0.09   0.07
  18   1     0.04  -0.04  -0.01    -0.04  -0.02  -0.02     0.02   0.02   0.02
  19   1     0.01  -0.04  -0.05    -0.01  -0.01  -0.01     0.04   0.03   0.02
  20   1     0.02  -0.03  -0.03    -0.02   0.00   0.01     0.01   0.04   0.02
  21   1     0.04  -0.03   0.00    -0.00  -0.00   0.01    -0.02   0.03  -0.04
  22   6    -0.14  -0.15  -0.04     0.09  -0.01  -0.05    -0.07  -0.01   0.01
  23   8    -0.23  -0.27   0.06     0.27   0.08  -0.15    -0.14  -0.04   0.05
  24   7    -0.14  -0.19  -0.05     0.01   0.03   0.08    -0.04  -0.02  -0.05
  25   1    -0.03  -0.04  -0.03     0.01   0.02   0.03    -0.01  -0.01  -0.01
  26   1    -0.01  -0.00  -0.06    -0.04  -0.02   0.05     0.00   0.01  -0.02
  27   7    -0.08  -0.02  -0.18    -0.00  -0.16  -0.04    -0.04   0.04   0.02
  28   1    -0.03  -0.03  -0.03    -0.02  -0.03  -0.02     0.00   0.02  -0.00
  29   1    -0.04  -0.04  -0.00     0.02  -0.03  -0.06    -0.02   0.01   0.02
  30   6    -0.01   0.08   0.14    -0.07  -0.01   0.22    -0.09   0.06   0.01
  31   8    -0.05   0.00   0.10    -0.04   0.05   0.02    -0.12   0.02   0.06
  32   7    -0.12   0.12   0.29    -0.15  -0.09   0.49    -0.10   0.11  -0.04
  33   1    -0.06   0.02   0.10    -0.04  -0.03   0.14    -0.03   0.03  -0.00
  34   1    -0.02   0.06   0.09    -0.04  -0.04   0.18    -0.03   0.04  -0.01
  35   7     0.11   0.14   0.08    -0.04  -0.00   0.23    -0.07   0.07   0.02
  36   1     0.04   0.05   0.01    -0.03  -0.02   0.10    -0.01   0.03  -0.01
  37   1     0.05   0.03  -0.01    -0.01   0.01   0.03    -0.01   0.01   0.01
  38   6    -0.01   0.08  -0.02     0.00   0.02  -0.16     0.05  -0.03  -0.04
  39   8     0.03   0.10  -0.07    -0.01  -0.00  -0.29    -0.09  -0.11  -0.09
  40   7    -0.10   0.09  -0.01     0.02   0.15  -0.13     0.60   0.29   0.01
  41   1    -0.03   0.02  -0.00    -0.01   0.05  -0.04     0.12   0.07  -0.01
  42   1    -0.04   0.02   0.00     0.00   0.04  -0.02     0.15   0.07   0.01
  43   7     0.04   0.08   0.01     0.01  -0.06  -0.10    -0.30  -0.24  -0.04
  44   1     0.00   0.02   0.01     0.01  -0.01  -0.01    -0.04  -0.05   0.02
  45   1     0.03   0.02  -0.00     0.00  -0.04  -0.03    -0.17  -0.12  -0.00
  46   6     0.12  -0.01  -0.06    -0.02   0.01   0.10     0.01  -0.07  -0.02
  47   8     0.22   0.09  -0.29    -0.06   0.00   0.28     0.03  -0.02  -0.02
  48   7     0.08  -0.13   0.30     0.04   0.04  -0.10     0.04  -0.14   0.00
  49   1     0.05  -0.02   0.03     0.00   0.00   0.02     0.03  -0.03  -0.00
  50   1     0.03  -0.04   0.04     0.01   0.01  -0.01     0.01  -0.05  -0.01
  51   7     0.08  -0.02  -0.15    -0.04   0.01   0.11    -0.04  -0.08  -0.07
  52   1    -0.01  -0.03   0.05     0.01   0.01  -0.03    -0.02  -0.04  -0.00
  53   1     0.01   0.00  -0.04    -0.01   0.01   0.03    -0.02  -0.01  -0.00
                     13                     14                     15
                        a                      a                      a 
 Frequencies --    70.1129                77.1451                82.9350
 Red. masses --    11.5476                11.7092                13.0187
 Frc consts  --     0.0000                 0.0000                 0.0000
 IR Inten    --     7.8861                 2.3112                 2.5136
 Raman Activ --     0.0000                 0.0000                 0.0000
 Depolar     --     0.0000                 0.0000                 0.0000
 Atom AN      X      Y      Z        X      Y      Z        X      Y      Z
   1   8     0.03   0.03   0.06     0.05  -0.31   0.00    -0.03   0.17  -0.03
   2   6     0.01   0.04   0.08    -0.09   0.05   0.17    -0.01   0.06  -0.05
   3   1    -0.01   0.03   0.02    -0.08   0.08   0.02     0.01   0.01  -0.01
   4   1    -0.00   0.01   0.04     0.01   0.03   0.14    -0.02   0.01  -0.03
   5   6     0.03   0.01   0.07    -0.10  -0.01   0.06     0.03   0.05  -0.01
   6   1     0.04  -0.02   0.04    -0.04  -0.03   0.03     0.02   0.01   0.00
   7   1    -0.01   0.03   0.04    -0.03   0.01   0.01    -0.00   0.02   0.01
   8   7    -0.02  -0.03  -0.11    -0.09  -0.02  -0.06     0.02   0.05  -0.04
   9   6    -0.00   0.03   0.08    -0.09  -0.10  -0.30     0.03   0.06   0.02
  10   1    -0.04   0.02   0.05     0.00  -0.01  -0.11    -0.01   0.03   0.02
  11   1    -0.00   0.00   0.01    -0.02  -0.03  -0.10     0.01   0.01  -0.00
  12   1     0.04   0.02   0.04    -0.06  -0.06  -0.09     0.03   0.02   0.02
  13   6    -0.30  -0.02  -0.26     0.10   0.17  -0.04    -0.06   0.03  -0.07
  14   1    -0.14   0.01  -0.03     0.05   0.05  -0.03    -0.03   0.02  -0.01
  15   1    -0.10  -0.01  -0.13     0.02   0.08   0.04    -0.01  -0.00  -0.03
  16   1    -0.09  -0.01  -0.10     0.06   0.05  -0.03    -0.03   0.01  -0.03
  17   6     0.21  -0.15  -0.31    -0.22  -0.13   0.06     0.08   0.03  -0.09
  18   1     0.12  -0.05  -0.05    -0.10  -0.06   0.01     0.04  -0.00  -0.01
  19   1     0.05  -0.05  -0.13    -0.07  -0.04   0.00     0.03   0.01  -0.04
  20   1     0.06  -0.06  -0.13    -0.06  -0.03   0.06     0.02   0.01  -0.03
  21   1    -0.00   0.02   0.02     0.03  -0.08   0.03    -0.02   0.04  -0.02
  22   6     0.01  -0.00  -0.04     0.08   0.04   0.05     0.18  -0.16   0.02
  23   8     0.05  -0.00  -0.04     0.05   0.11  -0.03     0.31  -0.23   0.07
  24   7     0.00   0.07  -0.06     0.08  -0.09   0.11     0.13  -0.11   0.09
  25   1    -0.01   0.01   0.01     0.02  -0.02   0.01     0.04  -0.02   0.03
  26   1    -0.02   0.00   0.00     0.03  -0.03   0.04     0.02  -0.01   0.00
  27   7    -0.03  -0.07  -0.03     0.12   0.10   0.09     0.16  -0.18  -0.14
  28   1    -0.01   0.00  -0.03     0.04  -0.00   0.05     0.01  -0.07  -0.02
  29   1     0.00  -0.01  -0.03     0.03   0.04   0.02     0.05  -0.09  -0.03
  30   6     0.00  -0.04   0.02    -0.01  -0.00  -0.01    -0.06   0.02   0.07
  31   8    -0.02  -0.08   0.22    -0.02   0.02   0.12    -0.05   0.06   0.07
  32   7     0.06  -0.04  -0.09     0.06  -0.02  -0.11     0.03   0.11  -0.21
  33   1     0.01  -0.02   0.01     0.02  -0.01  -0.01     0.02   0.05  -0.12
  34   1     0.01  -0.01  -0.05     0.01  -0.01  -0.05     0.00   0.01  -0.07
  35   7    -0.01  -0.01  -0.11    -0.07  -0.00  -0.04    -0.18  -0.12   0.40
  36   1     0.01   0.00  -0.05    -0.01  -0.00  -0.03    -0.03  -0.02   0.07
  37   1    -0.01  -0.01   0.01    -0.02   0.00  -0.01    -0.05  -0.03   0.09
  38   6     0.03   0.09   0.07     0.08   0.04   0.04    -0.05   0.02   0.05
  39   8     0.22   0.20   0.08     0.32   0.14  -0.02    -0.16  -0.05  -0.03
  40   7     0.07   0.13   0.08     0.08   0.12   0.07    -0.03   0.12   0.09
  41   1     0.03   0.03   0.03     0.04   0.04   0.01    -0.02   0.04   0.02
  42   1    -0.03   0.00   0.02    -0.03  -0.00   0.03     0.01   0.05   0.04
  43   7    -0.21  -0.03   0.06    -0.17  -0.16   0.09     0.04  -0.01   0.13
  44   1    -0.08  -0.01   0.02    -0.08  -0.05   0.04     0.03   0.01   0.05
  45   1    -0.05   0.00   0.02    -0.03  -0.04   0.02     0.00  -0.03   0.03
  46   6    -0.03  -0.03   0.08    -0.02   0.02  -0.07    -0.07   0.01  -0.08
  47   8    -0.10  -0.05   0.37    -0.02  -0.04  -0.23    -0.09  -0.09  -0.24
  48   7     0.02  -0.02  -0.06    -0.12   0.07   0.08    -0.20   0.09   0.05
  49   1    -0.00  -0.01   0.04    -0.03   0.03  -0.04    -0.06   0.03  -0.05
  50   1     0.01  -0.01  -0.05    -0.02   0.04  -0.01    -0.03   0.06  -0.02
  51   7    -0.00  -0.00  -0.08     0.05   0.03  -0.05     0.02   0.03  -0.05
  52   1     0.01   0.00  -0.07     0.00   0.01   0.04    -0.00   0.02   0.04
  53   1    -0.01  -0.01   0.01     0.02   0.00  -0.00     0.01  -0.00   0.00
                     16                     17                     18
                        a                      a                      a 
 Frequencies --    95.5563               101.5093               109.5245
 Red. masses --    12.5208                11.8940                12.1233
 Frc consts  --     0.0000                 0.0000                 0.0000
 IR Inten    --     6.5637                 6.5595                19.1034
 Raman Activ --     0.0000                 0.0000                 0.0000
 Depolar     --     0.0000                 0.0000                 0.0000
 Atom AN      X      Y      Z        X      Y      Z        X      Y      Z
   1   8    -0.06  -0.14   0.04    -0.02  -0.06  -0.10     0.05   0.01   0.03
   2   6    -0.07  -0.13   0.08    -0.21   0.14   0.22     0.06   0.07  -0.00
   3   1    -0.03  -0.03   0.02    -0.14   0.10   0.03     0.02   0.00   0.00
   4   1    -0.03  -0.04   0.04    -0.05   0.05   0.16     0.04   0.03  -0.02
   5   6    -0.02  -0.17   0.08    -0.06   0.02   0.24    -0.04   0.16   0.01
   6   1    -0.01  -0.06   0.02     0.00  -0.03   0.09    -0.00   0.06  -0.00
   7   1    -0.00  -0.06   0.02    -0.04   0.00   0.10    -0.01   0.06   0.00
   8   7     0.06  -0.15   0.08     0.05   0.04   0.06    -0.17   0.13   0.07
   9   6     0.10  -0.19   0.09     0.12  -0.08  -0.03    -0.21   0.20   0.08
  10   1     0.03  -0.07   0.02     0.04  -0.01  -0.01    -0.06   0.07   0.03
  11   1     0.04  -0.05   0.03     0.05  -0.02  -0.04    -0.08   0.05   0.03
  12   1     0.02  -0.06   0.02     0.02  -0.06  -0.00    -0.05   0.07   0.03
  13   6     0.08  -0.09   0.07     0.07   0.22  -0.00    -0.18   0.03   0.10
  14   1     0.02  -0.04   0.02     0.02   0.08   0.00    -0.05   0.00   0.03
  15   1     0.01  -0.01   0.02     0.01   0.09   0.01    -0.05  -0.01   0.02
  16   1     0.04  -0.02   0.02     0.04   0.06  -0.04    -0.06   0.01   0.04
  17   6     0.07  -0.09   0.07     0.08  -0.01   0.03    -0.17   0.10   0.08
  18   1     0.02  -0.01   0.02     0.03  -0.02   0.02    -0.05   0.04   0.02
  19   1     0.02  -0.02   0.03     0.03  -0.00  -0.01    -0.06   0.02   0.03
  20   1     0.02  -0.03   0.01     0.02   0.00   0.01    -0.04   0.01   0.02
  21   1    -0.02  -0.03   0.02    -0.02  -0.00  -0.02     0.03  -0.01  -0.00
  22   6     0.08  -0.01  -0.06     0.03   0.02  -0.09     0.05   0.01  -0.03
  23   8     0.29   0.02  -0.10     0.18   0.06  -0.16     0.31  -0.04   0.02
  24   7    -0.02   0.09   0.05    -0.03   0.09  -0.03    -0.07   0.22   0.04
  25   1     0.01   0.05   0.02    -0.00   0.03   0.00     0.00   0.09   0.03
  26   1    -0.04   0.01   0.02    -0.04   0.00   0.01    -0.06   0.07   0.00
  27   7    -0.04  -0.17  -0.12    -0.06  -0.12  -0.11    -0.11  -0.20  -0.19
  28   1    -0.05  -0.04  -0.05    -0.04  -0.03  -0.04    -0.09  -0.04  -0.07
  29   1     0.02  -0.06  -0.07     0.00  -0.04  -0.06    -0.00  -0.10  -0.07
  30   6    -0.03   0.06  -0.04     0.03  -0.03  -0.04     0.03  -0.02  -0.01
  31   8    -0.06  -0.01  -0.12    -0.00  -0.10   0.18    -0.02  -0.15   0.02
  32   7    -0.10   0.15  -0.04     0.06  -0.06  -0.05    -0.04   0.07  -0.01
  33   1    -0.05   0.04  -0.02     0.01  -0.02   0.02    -0.04   0.01   0.01
  34   1    -0.02   0.05   0.01     0.02   0.01  -0.07    -0.00   0.04   0.01
  35   7     0.03   0.05   0.06     0.07   0.06  -0.29     0.13   0.01  -0.04
  36   1     0.01   0.02   0.02     0.03   0.02  -0.10     0.04   0.01  -0.01
  37   1     0.01   0.01  -0.00     0.02   0.01  -0.05     0.04   0.00  -0.02
  38   6    -0.03   0.15   0.00    -0.13  -0.05   0.04     0.13  -0.14  -0.02
  39   8     0.03   0.26   0.28    -0.41  -0.21  -0.05     0.26  -0.10  -0.02
  40   7     0.08  -0.05  -0.09    -0.07   0.03   0.07     0.13  -0.14  -0.01
  41   1     0.02  -0.04  -0.00    -0.03   0.01   0.02     0.03  -0.04  -0.00
  42   1     0.00  -0.03  -0.07     0.03   0.05   0.03     0.01  -0.05  -0.00
  43   7    -0.23   0.32  -0.21     0.15   0.02   0.11     0.02  -0.24  -0.01
  44   1    -0.06   0.07  -0.12     0.08   0.02   0.05    -0.02  -0.07   0.00
  45   1    -0.08   0.15  -0.04     0.01  -0.03   0.03     0.02  -0.06  -0.00
  46   6    -0.03   0.04  -0.04     0.03   0.00   0.00    -0.03   0.01  -0.04
  47   8     0.02   0.12  -0.13     0.05   0.06   0.02     0.04   0.16  -0.10
  48   7     0.00  -0.03   0.03     0.07  -0.05   0.00     0.05  -0.13   0.03
  49   1     0.02  -0.00  -0.02     0.03  -0.01  -0.00     0.05  -0.02  -0.01
  50   1    -0.01  -0.02   0.01     0.02  -0.02  -0.01     0.00  -0.06   0.00
  51   7    -0.11   0.01   0.02    -0.01  -0.01  -0.03    -0.16  -0.02  -0.02
  52   1    -0.04  -0.01   0.02    -0.01  -0.01   0.01    -0.05  -0.03   0.01
  53   1    -0.03   0.01  -0.01    -0.01  -0.00   0.01    -0.05   0.00  -0.01
                     19                     20                     21
                        a                      a                      a 
 Frequencies --   113.4024               121.1313               129.9937
 Red. masses --    13.3460                13.5768                12.0613
 Frc consts  --     0.0000                 0.0000                 0.0000
 IR Inten    --    10.0392                 3.0740                 5.0252
 Raman Activ --     0.0000                 0.0000                 0.0000
 Depolar     --     0.0000                 0.0000                 0.0000
 Atom AN      X      Y      Z        X      Y      Z        X      Y      Z
   1   8    -0.04   0.02   0.03     0.02   0.02  -0.02    -0.00  -0.04   0.05
   2   6     0.05  -0.07  -0.10    -0.02   0.09   0.04     0.06  -0.13  -0.04
   3   1     0.05  -0.03  -0.02    -0.02   0.05   0.00     0.04  -0.08   0.00
   4   1     0.00  -0.03  -0.06    -0.00   0.03   0.04     0.02  -0.04  -0.06
   5   6     0.03  -0.08  -0.14    -0.01   0.05   0.01    -0.00  -0.03   0.03
   6   1    -0.00  -0.02  -0.04     0.00   0.00   0.01    -0.00   0.02  -0.00
   7   1     0.02  -0.03  -0.05    -0.01   0.02   0.01     0.00  -0.02   0.00
   8   7     0.06  -0.07  -0.12    -0.01   0.05  -0.07    -0.04  -0.03   0.18
   9   6     0.05  -0.09  -0.17    -0.00   0.02  -0.11    -0.06   0.02   0.23
  10   1     0.02  -0.02  -0.06    -0.00   0.02  -0.03    -0.01  -0.01   0.07
  11   1     0.01  -0.02  -0.05    -0.00   0.00  -0.04    -0.02   0.01   0.09
  12   1     0.00  -0.03  -0.05    -0.00  -0.01  -0.02    -0.02   0.03   0.05
  13   6     0.15  -0.06  -0.07     0.00   0.08  -0.08    -0.05  -0.12   0.20
  14   1     0.06  -0.01  -0.03    -0.00   0.02  -0.02    -0.01  -0.04   0.06
  15   1     0.05  -0.02   0.00    -0.00   0.03  -0.02    -0.01  -0.05   0.05
  16   1     0.04  -0.02  -0.02     0.01   0.02  -0.02    -0.03  -0.04   0.07
  17   6    -0.01  -0.04  -0.05    -0.01  -0.01  -0.07    -0.04   0.07   0.17
  18   1    -0.02  -0.01  -0.02    -0.00  -0.00  -0.02    -0.02   0.04   0.04
  19   1     0.00  -0.01  -0.01    -0.01  -0.01  -0.02    -0.01   0.02   0.07
  20   1    -0.00  -0.01  -0.00     0.00  -0.01  -0.02    -0.01   0.02   0.04
  21   1    -0.02   0.01   0.02     0.00   0.01   0.01     0.02  -0.03  -0.02
  22   6     0.03   0.00   0.23     0.09  -0.14   0.08     0.11  -0.14  -0.05
  23   8     0.05  -0.21   0.51     0.06  -0.27   0.22     0.08  -0.15  -0.08
  24   7     0.03   0.20   0.14     0.10  -0.09   0.04     0.12  -0.22  -0.04
  25   1     0.01   0.06   0.06     0.03  -0.02   0.02     0.03  -0.06  -0.01
  26   1     0.01   0.11  -0.02     0.04   0.02  -0.03     0.04  -0.05  -0.01
  27   7     0.04   0.08   0.01     0.14  -0.05  -0.05     0.14  -0.13  -0.05
  28   1    -0.01   0.01   0.01     0.03  -0.03   0.01     0.04  -0.04  -0.01
  29   1    -0.01  -0.06   0.08     0.02  -0.06   0.04     0.04  -0.02  -0.02
  30   6     0.00  -0.06   0.03    -0.09   0.07  -0.19    -0.09   0.03  -0.07
  31   8    -0.08  -0.25   0.28    -0.02   0.24  -0.47    -0.10   0.06   0.13
  32   7    -0.02   0.03  -0.06    -0.16  -0.13   0.18    -0.05  -0.08  -0.02
  33   1    -0.04  -0.01   0.04    -0.02  -0.03   0.05    -0.02  -0.04   0.07
  34   1     0.00   0.05  -0.05    -0.04  -0.06   0.09    -0.02  -0.02  -0.03
  35   7     0.11   0.03  -0.18    -0.10   0.09  -0.27    -0.10   0.13  -0.39
  36   1     0.06   0.04  -0.09    -0.04   0.01  -0.03    -0.02   0.04  -0.13
  37   1     0.03  -0.00  -0.03    -0.03   0.03  -0.08    -0.03   0.02  -0.07
  38   6    -0.04   0.02  -0.06     0.02  -0.04   0.15    -0.02   0.11  -0.10
  39   8    -0.08  -0.00  -0.10    -0.02  -0.05   0.25     0.07   0.13  -0.27
  40   7    -0.04   0.04  -0.06     0.12  -0.08   0.14    -0.14   0.25  -0.04
  41   1    -0.03  -0.00  -0.01     0.03  -0.02   0.03    -0.04   0.08  -0.02
  42   1    -0.02   0.01  -0.01     0.05  -0.01   0.02    -0.07   0.05   0.02
  43   7     0.02   0.04  -0.05    -0.03  -0.00   0.10     0.00  -0.02   0.02
  44   1     0.01   0.01  -0.01    -0.01  -0.00   0.02    -0.01  -0.00   0.04
  45   1     0.01   0.00  -0.02    -0.03   0.00   0.03     0.03  -0.02  -0.01
  46   6    -0.07   0.11  -0.00    -0.02   0.03   0.03     0.04   0.07   0.03
  47   8    -0.06   0.21   0.03    -0.02   0.07   0.09     0.01   0.01   0.07
  48   7    -0.02   0.04   0.00     0.04   0.01  -0.06    -0.00   0.13   0.01
  49   1     0.02   0.02  -0.01    -0.00  -0.01   0.07    -0.01   0.04  -0.02
  50   1    -0.00  -0.00  -0.02    -0.02  -0.02   0.07     0.02   0.05  -0.03
  51   7    -0.15   0.10  -0.06    -0.09   0.03   0.04     0.09   0.09   0.01
  52   1    -0.05   0.01   0.00    -0.01   0.00  -0.06     0.02   0.02   0.01
  53   1    -0.05   0.02   0.02    -0.02   0.03  -0.05     0.02   0.02   0.02
                     22                     23                     24
                        a                      a                      a 
 Frequencies --   146.0012               173.5169               183.5468
 Red. masses --    12.5909                12.4937                11.4973
 Frc consts  --     0.0000                 0.0000                 0.0000
 IR Inten    --    14.3382                10.3872                47.9989
 Raman Activ --     0.0000                 0.0000                 0.0000
 Depolar     --     0.0000                 0.0000                 0.0000
 Atom AN      X      Y      Z        X      Y      Z        X      Y      Z
   1   8    -0.03  -0.03   0.04    -0.01   0.09  -0.03     0.00  -0.13   0.04
   2   6     0.03  -0.08  -0.05    -0.00   0.01  -0.02     0.00   0.01   0.02
   3   1     0.03  -0.04  -0.00     0.00  -0.01  -0.00    -0.00   0.03  -0.00
   4   1     0.01  -0.02  -0.04    -0.01  -0.00  -0.02     0.01   0.01   0.03
   5   6     0.00  -0.05  -0.04     0.03   0.02   0.04    -0.04  -0.02  -0.08
   6   1    -0.00  -0.00  -0.02     0.03   0.00   0.02    -0.05  -0.01  -0.03
   7   1     0.01  -0.02  -0.02    -0.00   0.01   0.03     0.01  -0.02  -0.05
   8   7     0.00  -0.05   0.00    -0.00  -0.01  -0.01     0.01   0.02  -0.02
   9   6    -0.00  -0.04   0.00    -0.03   0.01  -0.06     0.05  -0.01   0.06
  10   1    -0.00  -0.01   0.00    -0.00   0.01  -0.03     0.00  -0.01   0.03
  11   1    -0.00  -0.01  -0.00    -0.02  -0.00  -0.02     0.02   0.00   0.02
  12   1     0.00  -0.01   0.00    -0.01  -0.00  -0.02     0.02   0.00   0.02
  13   6     0.03  -0.05   0.02     0.00   0.01  -0.02    -0.02  -0.01  -0.02
  14   1     0.02  -0.01   0.00     0.01   0.01  -0.01    -0.02  -0.02   0.00
  15   1     0.01  -0.02   0.01     0.01  -0.00   0.00    -0.01   0.01  -0.02
  16   1     0.01  -0.01   0.01    -0.01   0.00  -0.01     0.01   0.00   0.00
  17   6    -0.02  -0.01   0.03    -0.01  -0.07  -0.00     0.03   0.09  -0.03
  18   1    -0.01   0.00   0.00    -0.00  -0.04   0.00     0.01   0.05  -0.01
  19   1    -0.00  -0.00   0.02    -0.00  -0.02  -0.02     0.01   0.03   0.01
  20   1    -0.01  -0.00   0.01    -0.00  -0.02   0.01     0.01   0.02  -0.02
  21   1    -0.00  -0.01   0.00    -0.00   0.02  -0.03    -0.01  -0.01   0.06
  22   6    -0.07   0.10   0.06    -0.05   0.07   0.03    -0.00   0.01  -0.01
  23   8     0.11   0.00   0.20     0.05   0.01   0.11    -0.03   0.05  -0.07
  24   7    -0.14   0.33   0.06    -0.08   0.21   0.02    -0.00  -0.06   0.00
  25   1    -0.03   0.09   0.04    -0.03   0.04   0.03     0.02   0.02  -0.04
  26   1    -0.07   0.10   0.01    -0.04   0.04   0.01     0.02   0.03  -0.04
  27   7    -0.20  -0.05  -0.09    -0.14  -0.03  -0.06     0.02   0.06   0.01
  28   1    -0.09   0.04  -0.08    -0.05   0.04  -0.07    -0.02  -0.09   0.11
  29   1    -0.03  -0.05  -0.05    -0.02  -0.02  -0.05    -0.02  -0.04   0.08
  30   6     0.06   0.04  -0.07    -0.20  -0.12  -0.05    -0.11  -0.15   0.01
  31   8     0.16   0.24  -0.17    -0.24  -0.10  -0.01    -0.07   0.01   0.02
  32   7     0.17  -0.16   0.00    -0.25  -0.09  -0.10     0.05  -0.27  -0.13
  33   1     0.10  -0.03  -0.02    -0.08  -0.03  -0.01     0.07  -0.05  -0.09
  34   1     0.03  -0.09   0.00    -0.06  -0.02   0.00    -0.01  -0.12  -0.07
  35   7    -0.07  -0.02  -0.03    -0.22  -0.12  -0.03    -0.30  -0.23   0.16
  36   1    -0.04  -0.03   0.02    -0.04  -0.01  -0.03    -0.08  -0.07   0.03
  37   1    -0.03   0.01  -0.03    -0.05  -0.05  -0.00    -0.10  -0.04   0.04
  38   6    -0.04   0.15   0.04     0.02  -0.04   0.00    -0.00   0.02  -0.01
  39   8     0.00   0.16  -0.14     0.02  -0.03   0.06     0.00   0.02  -0.04
  40   7    -0.15   0.31   0.11     0.06  -0.08  -0.02    -0.03   0.05   0.01
  41   1    -0.02   0.11   0.01    -0.01  -0.03   0.00     0.00   0.02  -0.00
  42   1    -0.04   0.08   0.05     0.01  -0.03  -0.01    -0.00   0.02   0.01
  43   7    -0.02   0.01   0.19    -0.01   0.00  -0.05    -0.01  -0.01   0.02
  44   1    -0.01   0.01   0.09    -0.01  -0.00  -0.03     0.01   0.00   0.01
  45   1     0.02  -0.03   0.04    -0.01   0.01  -0.01     0.02  -0.00   0.00
  46   6     0.03  -0.18  -0.05     0.25   0.06   0.05     0.08   0.17   0.01
  47   8     0.06  -0.18  -0.12     0.23  -0.16  -0.02     0.20   0.41  -0.03
  48   7     0.05  -0.21  -0.02     0.13   0.24   0.09     0.34  -0.09   0.04
  49   1     0.01  -0.06   0.01     0.00   0.07  -0.04     0.13  -0.04   0.14
  50   1    -0.00  -0.07   0.03     0.07   0.12  -0.02     0.00  -0.13   0.17
  51   7     0.05  -0.19   0.00     0.48   0.08   0.12    -0.16   0.13  -0.03
  52   1     0.01  -0.05   0.00     0.12   0.04   0.08    -0.05  -0.01  -0.04
  53   1     0.01  -0.04  -0.02     0.14   0.01   0.05    -0.06   0.07  -0.03
                     25                     26                     27
                        a                      a                      a 
 Frequencies --   188.6489               199.0163               201.5023
 Red. masses --     9.8436                 2.8503                 3.5293
 Frc consts  --     0.0000                 0.0000                 0.0000
 IR Inten    --    20.2947               105.3604               141.3427
 Raman Activ --     0.0000                 0.0000                 0.0000
 Depolar     --     0.0000                 0.0000                 0.0000
 Atom AN      X      Y      Z        X      Y      Z        X      Y      Z
   1   8     0.04  -0.46   0.13     0.02  -0.05   0.01     0.01   0.07  -0.03
   2   6    -0.01   0.10   0.10    -0.00   0.02   0.02     0.00  -0.02  -0.01
   3   1    -0.02   0.13  -0.00    -0.00   0.02   0.00     0.00  -0.02   0.00
   4   1     0.05   0.06   0.13     0.01   0.01   0.02    -0.01  -0.01  -0.02
   5   6    -0.18  -0.02  -0.29    -0.02  -0.00  -0.04     0.03  -0.00   0.05
   6   1    -0.18  -0.02  -0.11    -0.03  -0.01  -0.02     0.03   0.01   0.02
   7   1     0.02  -0.04  -0.19     0.01  -0.01  -0.03    -0.00   0.01   0.03
   8   7     0.01   0.10  -0.08     0.00   0.01  -0.02    -0.00  -0.02   0.02
   9   6     0.16  -0.00   0.17     0.02  -0.01   0.01    -0.03  -0.00  -0.02
  10   1     0.00  -0.04   0.09     0.00  -0.00   0.01     0.00  -0.00  -0.01
  11   1     0.09   0.01   0.05     0.01  -0.00  -0.00    -0.02  -0.00   0.00
  12   1     0.08  -0.00   0.07     0.01  -0.00   0.01    -0.02   0.01  -0.01
  13   6    -0.02   0.00  -0.05     0.00  -0.00  -0.01     0.00  -0.01   0.02
  14   1    -0.04  -0.08   0.00    -0.01  -0.02  -0.00     0.01   0.01   0.00
  15   1    -0.05   0.05  -0.08    -0.01   0.01  -0.01     0.01  -0.01   0.01
  16   1     0.06   0.02   0.03     0.01   0.00   0.00    -0.01  -0.01  -0.00
  17   6     0.06   0.37  -0.10     0.00   0.05  -0.02    -0.00  -0.06   0.02
  18   1     0.03   0.19  -0.05     0.00   0.03  -0.01    -0.00  -0.03   0.01
  19   1    -0.01   0.11   0.06    -0.00   0.01   0.01     0.00  -0.02  -0.01
  20   1     0.03   0.06  -0.09     0.00   0.01  -0.02    -0.00  -0.01   0.01
  21   1     0.02  -0.08   0.16    -0.00  -0.00   0.02    -0.02   0.03  -0.00
  22   6    -0.01  -0.01   0.03    -0.01  -0.01   0.01    -0.01  -0.00   0.03
  23   8     0.01  -0.04   0.07    -0.02  -0.01   0.00     0.06   0.07  -0.05
  24   7    -0.01   0.06  -0.01     0.01   0.01  -0.03    -0.02   0.04  -0.02
  25   1    -0.01   0.01   0.01    -0.00  -0.00   0.01     0.04   0.08  -0.08
  26   1    -0.00   0.02  -0.01    -0.00  -0.00  -0.00     0.06   0.14  -0.13
  27   7    -0.02  -0.00  -0.05     0.01   0.03  -0.02    -0.00   0.16  -0.18
  28   1    -0.03  -0.04   0.03    -0.02  -0.05   0.06    -0.20  -0.47   0.48
  29   1    -0.02  -0.05   0.03    -0.01  -0.03   0.05    -0.10  -0.33   0.35
  30   6    -0.01   0.02   0.01    -0.01  -0.01  -0.03     0.00   0.08   0.04
  31   8    -0.03  -0.03   0.02     0.02   0.06  -0.11     0.00   0.12   0.11
  32   7    -0.06   0.08   0.01     0.02  -0.07   0.00     0.05   0.02   0.03
  33   1    -0.04   0.02   0.01     0.03  -0.01  -0.02     0.03   0.00   0.03
  34   1    -0.01   0.04   0.01    -0.00  -0.04   0.01     0.01  -0.01  -0.00
  35   7     0.04   0.04  -0.01    -0.04  -0.04   0.01    -0.07   0.10  -0.04
  36   1     0.02   0.02  -0.01    -0.02  -0.02   0.02    -0.01   0.02  -0.04
  37   1     0.02   0.00  -0.01    -0.02  -0.00   0.01    -0.02   0.03  -0.00
  38   6    -0.01  -0.02  -0.01    -0.00   0.00   0.01     0.01  -0.03  -0.03
  39   8    -0.03  -0.03   0.00    -0.01   0.00   0.01     0.02  -0.02   0.02
  40   7     0.02  -0.02  -0.01    -0.01   0.00   0.01     0.01  -0.08  -0.04
  41   1    -0.01  -0.01  -0.00     0.01   0.01   0.00     0.01  -0.02  -0.01
  42   1     0.01  -0.00  -0.00     0.01   0.01   0.00     0.01  -0.02  -0.01
  43   7     0.01  -0.01  -0.02     0.00   0.00   0.01     0.00   0.01  -0.07
  44   1    -0.00  -0.00  -0.01    -0.01  -0.00   0.01     0.00   0.00  -0.03
  45   1    -0.01  -0.00  -0.00    -0.01  -0.00   0.00     0.00   0.02  -0.02
  46   6     0.01  -0.05   0.01     0.01   0.03  -0.01    -0.00  -0.07   0.01
  47   8    -0.03  -0.18   0.00     0.01   0.09   0.12    -0.03  -0.13   0.03
  48   7    -0.08   0.08  -0.03    -0.03  -0.11   0.23    -0.04  -0.00  -0.03
  49   1    -0.07   0.01   0.02     0.20   0.09  -0.47    -0.03  -0.01   0.02
  50   1    -0.02   0.05   0.04     0.25   0.07  -0.67    -0.02   0.01   0.03
  51   7     0.15  -0.03   0.02    -0.06  -0.00   0.02     0.07  -0.05  -0.00
  52   1     0.05   0.01  -0.00    -0.08  -0.03   0.18     0.03  -0.00  -0.01
  53   1     0.05  -0.02   0.01    -0.05   0.00   0.09     0.02  -0.02   0.01
                     28                     29                     30
                        a                      a                      a 
 Frequencies --   212.1208               271.3567               292.1744
 Red. masses --    12.2271                 7.1864                 3.2679
 Frc consts  --     0.0000                 0.0000                 0.0000
 IR Inten    --    61.3534                45.9270               100.4823
 Raman Activ --     0.0000                 0.0000                 0.0000
 Depolar     --     0.0000                 0.0000                 0.0000
 Atom AN      X      Y      Z        X      Y      Z        X      Y      Z
   1   8    -0.00   0.01  -0.00    -0.27  -0.24   0.28     0.05  -0.18  -0.11
   2   6     0.00  -0.02  -0.01     0.04  -0.24  -0.20     0.07  -0.18  -0.16
   3   1     0.00  -0.02   0.00     0.09  -0.20  -0.01     0.05  -0.12  -0.02
   4   1    -0.00  -0.01  -0.01     0.06  -0.04  -0.21     0.04  -0.05  -0.13
   5   6     0.01  -0.01   0.02    -0.07   0.10   0.06    -0.03   0.04   0.05
   6   1     0.00   0.00   0.00     0.06   0.07   0.02     0.04   0.05   0.01
   7   1    -0.00  -0.00   0.01    -0.06   0.02   0.08    -0.03   0.01   0.05
   8   7     0.00  -0.01   0.02     0.01   0.14   0.01    -0.04   0.05   0.06
   9   6     0.00  -0.01   0.02     0.12  -0.00   0.02     0.02  -0.02   0.04
  10   1    -0.00   0.00   0.01     0.05  -0.05  -0.01     0.02  -0.03   0.00
  11   1     0.00  -0.00  -0.01     0.07   0.02   0.04     0.03   0.00   0.03
  12   1     0.00  -0.01   0.01     0.00   0.01  -0.02    -0.01  -0.01   0.00
  13   6     0.00  -0.00   0.02    -0.03   0.32  -0.09    -0.03   0.24  -0.02
  14   1     0.00   0.01   0.00     0.04   0.28  -0.05     0.03   0.20  -0.02
  15   1     0.00  -0.00   0.01     0.08  -0.01   0.08     0.04   0.02   0.08
  16   1    -0.00  -0.00   0.00    -0.15   0.04  -0.13    -0.09   0.04  -0.09
  17   6     0.00  -0.01   0.02     0.08   0.06  -0.05     0.02  -0.01   0.00
  18   1    -0.00  -0.01   0.01     0.01  -0.09   0.02     0.01  -0.05   0.02
  19   1     0.00  -0.00  -0.00     0.09   0.03  -0.10     0.03   0.00  -0.05
  20   1    -0.00   0.00   0.01    -0.02   0.09   0.04    -0.01   0.02   0.01
  21   1     0.00  -0.00  -0.01     0.20  -0.33  -0.25    -0.38   0.41   0.62
  22   6    -0.01   0.01  -0.02     0.00   0.01  -0.01    -0.00  -0.01   0.00
  23   8    -0.00   0.08  -0.10     0.01   0.01  -0.01    -0.00  -0.00  -0.00
  24   7    -0.00  -0.03  -0.02    -0.01  -0.00   0.01     0.01   0.01  -0.02
  25   1     0.01   0.01  -0.04     0.00   0.01  -0.01    -0.01  -0.02   0.01
  26   1     0.02   0.02  -0.03     0.01   0.02  -0.01    -0.02  -0.05   0.04
  27   7     0.01   0.07  -0.01    -0.00   0.00   0.00     0.00   0.00  -0.01
  28   1    -0.04  -0.14   0.16    -0.00  -0.01   0.01     0.00   0.01  -0.01
  29   1    -0.03  -0.07   0.11    -0.00  -0.00   0.01     0.00   0.01  -0.01
  30   6     0.03  -0.20  -0.13    -0.00   0.00  -0.00     0.00  -0.00  -0.01
  31   8    -0.01  -0.40  -0.37    -0.00   0.00  -0.00    -0.00  -0.00  -0.00
  32   7    -0.23   0.07  -0.00    -0.00  -0.00   0.00    -0.01   0.01   0.01
  33   1    -0.14   0.02  -0.06     0.00   0.00  -0.00    -0.00   0.00  -0.01
  34   1    -0.04   0.09   0.04    -0.00  -0.00  -0.00    -0.00   0.01  -0.01
  35   7     0.36  -0.21   0.05    -0.01   0.00  -0.00     0.01   0.00  -0.01
  36   1     0.09  -0.02   0.09    -0.00   0.00   0.00     0.00   0.00  -0.00
  37   1     0.12  -0.08  -0.01    -0.00   0.00   0.01     0.00  -0.00   0.00
  38   6    -0.03   0.12   0.09    -0.00  -0.02   0.02     0.00  -0.00   0.01
  39   8    -0.03   0.11  -0.08    -0.01  -0.02   0.03    -0.00  -0.01   0.01
  40   7    -0.02   0.28   0.12     0.02  -0.05   0.01     0.01  -0.02   0.01
  41   1    -0.04   0.07   0.03     0.01  -0.01   0.00     0.00  -0.01   0.00
  42   1    -0.04   0.06   0.05     0.02  -0.00  -0.01     0.01  -0.00  -0.00
  43   7    -0.02  -0.04   0.23     0.02   0.00   0.00    -0.01  -0.01   0.01
  44   1    -0.01  -0.00   0.11    -0.03  -0.01  -0.00     0.02   0.01   0.00
  45   1     0.01  -0.06   0.05    -0.02  -0.01   0.00     0.02   0.00   0.00
  46   6    -0.00   0.05   0.01    -0.00   0.00   0.00     0.00  -0.00  -0.00
  47   8    -0.01   0.04   0.02    -0.00   0.00   0.00     0.00  -0.00  -0.01
  48   7    -0.03   0.09   0.00    -0.00  -0.00   0.00    -0.01   0.00   0.01
  49   1    -0.02   0.02   0.01     0.00   0.00  -0.01    -0.00   0.00  -0.00
  50   1    -0.01   0.03   0.02     0.01   0.00  -0.01     0.00   0.00  -0.01
  51   7     0.00   0.05   0.04    -0.00   0.00  -0.00     0.00  -0.00   0.01
  52   1     0.02   0.02  -0.03    -0.00  -0.00   0.01     0.00   0.00  -0.01
  53   1     0.02   0.01  -0.03    -0.00   0.00   0.00     0.00  -0.00  -0.00
                     31                     32                     33
                        a                      a                      a 
 Frequencies --   293.7455               312.6889               322.9475
 Red. masses --     6.9105                 3.0531                 4.5324
 Frc consts  --     0.0000                 0.0000                 0.0000
 IR Inten    --     1.3905               205.2173                 6.6355
 Raman Activ --     0.0000                 0.0000                 0.0000
 Depolar     --     0.0000                 0.0000                 0.0000
 Atom AN      X      Y      Z        X      Y      Z        X      Y      Z
   1   8    -0.31  -0.19   0.04    -0.00  -0.01  -0.02     0.11   0.13   0.02
   2   6    -0.14   0.02  -0.15    -0.02   0.01   0.01     0.16  -0.16  -0.07
   3   1    -0.03  -0.00  -0.04    -0.01   0.02  -0.00     0.07  -0.13   0.01
   4   1    -0.03   0.01  -0.06    -0.01   0.00   0.02     0.05  -0.05  -0.12
   5   6     0.00   0.04  -0.03     0.00  -0.02  -0.01     0.01   0.04   0.08
   6   1     0.03   0.03  -0.01    -0.00  -0.01  -0.00     0.03   0.04   0.02
   7   1    -0.02  -0.03   0.03     0.00  -0.01  -0.01    -0.01   0.04   0.04
   8   7     0.13   0.09   0.03     0.01  -0.02  -0.00    -0.10   0.00   0.05
   9   6    -0.08   0.34   0.01    -0.03   0.04   0.01     0.11  -0.30  -0.06
  10   1    -0.09   0.26   0.05     0.02  -0.03  -0.02    -0.12   0.13   0.10
  11   1    -0.12   0.04  -0.12    -0.02   0.02   0.07     0.08  -0.13  -0.33
  12   1     0.09   0.07   0.08    -0.04   0.06  -0.03     0.18  -0.30   0.16
  13   6     0.21   0.05   0.09     0.02  -0.03   0.01    -0.15   0.19  -0.06
  14   1     0.06  -0.07   0.02     0.01  -0.00  -0.00    -0.15  -0.13   0.05
  15   1     0.03   0.06   0.00     0.01  -0.01   0.01    -0.17   0.21  -0.15
  16   1     0.12   0.03   0.07     0.01  -0.01  -0.00     0.17   0.11   0.01
  17   6     0.15  -0.28  -0.00     0.01  -0.02  -0.01    -0.13   0.10   0.08
  18   1     0.17   0.17  -0.03    -0.00  -0.04   0.01     0.00   0.21  -0.02
  19   1    -0.24  -0.16   0.12     0.03   0.00  -0.03    -0.16   0.00   0.17
  20   1     0.22  -0.34  -0.11    -0.01   0.02   0.01     0.05  -0.11  -0.06
  21   1    -0.04  -0.05   0.07    -0.03   0.03   0.04     0.02   0.01  -0.06
  22   6    -0.00  -0.01  -0.00     0.00   0.00  -0.00    -0.01  -0.00  -0.01
  23   8    -0.01  -0.00  -0.01     0.00   0.00  -0.00    -0.01   0.00  -0.01
  24   7     0.00  -0.01  -0.01    -0.00  -0.00   0.00    -0.00  -0.00  -0.01
  25   1    -0.00  -0.01   0.00     0.00   0.00  -0.00    -0.00  -0.00   0.00
  26   1    -0.00  -0.01   0.00     0.00   0.00  -0.00    -0.00   0.00  -0.00
  27   7     0.00  -0.00  -0.00    -0.00  -0.00   0.00     0.00   0.01   0.01
  28   1    -0.00  -0.01   0.01    -0.00  -0.00   0.00     0.00  -0.01   0.01
  29   1    -0.00  -0.00   0.00    -0.00  -0.00   0.00    -0.00   0.00   0.00
  30   6    -0.00  -0.00   0.00    -0.00  -0.00   0.01    -0.01   0.00   0.00
  31   8     0.00  -0.00   0.00    -0.00  -0.00   0.01    -0.01   0.00   0.02
  32   7     0.00  -0.00   0.01     0.00   0.01  -0.05     0.01  -0.00  -0.01
  33   1     0.00  -0.00  -0.00    -0.00  -0.01   0.06     0.01   0.00  -0.01
  34   1     0.00   0.00  -0.01     0.00  -0.02   0.06     0.00   0.00  -0.02
  35   7    -0.00  -0.00   0.01    -0.00  -0.01   0.01     0.00   0.01  -0.00
  36   1     0.00   0.00  -0.01     0.00  -0.00  -0.00    -0.01  -0.00   0.02
  37   1     0.00  -0.00  -0.01    -0.00  -0.00   0.00     0.00   0.00  -0.01
  38   6     0.01  -0.00  -0.01    -0.05   0.01  -0.00    -0.01  -0.01   0.01
  39   8     0.02   0.00  -0.01    -0.00   0.02   0.01    -0.01  -0.01   0.01
  40   7    -0.00   0.00  -0.01    -0.05  -0.00  -0.01    -0.00  -0.02   0.01
  41   1    -0.00   0.00  -0.00     0.03   0.03  -0.01     0.01  -0.00   0.00
  42   1    -0.01  -0.00  -0.00     0.14   0.10  -0.02     0.03   0.01  -0.00
  43   7     0.01  -0.01   0.00     0.37   0.09  -0.02     0.05   0.03  -0.01
  44   1    -0.01  -0.01   0.00    -0.73  -0.24   0.01    -0.11  -0.03  -0.01
  45   1    -0.00  -0.01   0.00    -0.41  -0.16   0.05    -0.07  -0.02   0.01
  46   6    -0.00  -0.00   0.00    -0.00   0.00  -0.01     0.00  -0.00   0.00
  47   8    -0.00  -0.00   0.01    -0.00   0.01  -0.01     0.00  -0.00   0.00
  48   7    -0.00   0.00  -0.00     0.01  -0.01   0.00     0.00   0.00  -0.00
  49   1    -0.00   0.00  -0.00     0.00  -0.00   0.01    -0.00  -0.00   0.00
  50   1     0.00   0.00  -0.01    -0.00  -0.01   0.01    -0.00  -0.00   0.01
  51   7     0.00  -0.00  -0.00    -0.01   0.00   0.01     0.00  -0.00  -0.00
  52   1    -0.00  -0.00   0.00     0.01   0.00  -0.02     0.00   0.00  -0.00
  53   1    -0.00  -0.00   0.00     0.00   0.00  -0.00    -0.00  -0.00   0.00
                     34                     35                     36
                        a                      a                      a 
 Frequencies --   361.3108               368.6433               382.0854
 Red. masses --     4.8263                 2.2679                 4.9168
 Frc consts  --     0.0000                 0.0000                 0.0000
 IR Inten    --     0.4384                 3.9190                 6.9190
 Raman Activ --     0.0000                 0.0000                 0.0000
 Depolar     --     0.0000                 0.0000                 0.0000
 Atom AN      X      Y      Z        X      Y      Z        X      Y      Z
   1   8     0.09   0.15  -0.08    -0.08  -0.09   0.03    -0.03   0.04   0.00
   2   6     0.02   0.12   0.03    -0.01   0.04  -0.08     0.06   0.09  -0.13
   3   1     0.00   0.11  -0.01     0.01   0.03  -0.03     0.04   0.07  -0.04
   4   1    -0.02   0.02   0.09     0.00   0.01  -0.01     0.00   0.02  -0.02
   5   6    -0.02  -0.11  -0.27     0.02   0.01  -0.09     0.05   0.00  -0.19
   6   1    -0.16  -0.03  -0.12     0.01   0.01  -0.03    -0.04   0.04  -0.08
   7   1     0.08  -0.08  -0.20     0.01  -0.01  -0.02     0.05  -0.05  -0.10
   8   7    -0.02  -0.08   0.01     0.03   0.02  -0.03     0.05   0.01   0.06
   9   6     0.04  -0.06   0.28    -0.00   0.13   0.12     0.11  -0.05   0.17
  10   1    -0.14   0.11   0.20    -0.15   0.22   0.15     0.16  -0.28  -0.04
  11   1     0.01  -0.05  -0.09    -0.04  -0.02  -0.17     0.09   0.07   0.33
  12   1     0.18  -0.09   0.21     0.17  -0.05   0.17    -0.13   0.14  -0.11
  13   6     0.01   0.16  -0.07     0.08   0.00   0.01    -0.11   0.26  -0.09
  14   1     0.12   0.38  -0.08    -0.05  -0.21   0.04    -0.16  -0.10   0.06
  15   1     0.15  -0.11   0.20    -0.09   0.15  -0.10    -0.18   0.26  -0.17
  16   1    -0.23  -0.04  -0.20     0.22   0.06   0.08     0.20   0.13  -0.02
  17   6    -0.13  -0.21   0.10    -0.02  -0.14   0.02    -0.10  -0.31   0.18
  18   1    -0.05  -0.03   0.01    -0.13  -0.44   0.08    -0.05  -0.09   0.04
  19   1    -0.10  -0.08   0.03     0.26   0.02  -0.27    -0.10  -0.12   0.02
  20   1     0.01  -0.10   0.06    -0.18   0.25   0.22     0.03  -0.14   0.12
  21   1     0.04   0.01  -0.09    -0.00  -0.01   0.06     0.03  -0.01  -0.01
  22   6     0.00   0.01  -0.01     0.00   0.01  -0.01     0.01   0.00  -0.00
  23   8    -0.00   0.00   0.00     0.01   0.01  -0.00     0.00  -0.00   0.00
  24   7    -0.01  -0.02   0.01    -0.01  -0.02   0.02    -0.01  -0.01   0.01
  25   1     0.01   0.01  -0.01     0.01   0.01  -0.02     0.00   0.01  -0.01
  26   1     0.02   0.04  -0.04     0.02   0.03  -0.02     0.01   0.03  -0.02
  27   7    -0.01  -0.01   0.01    -0.01  -0.01   0.01    -0.00  -0.01   0.01
  28   1     0.00   0.01  -0.01    -0.00   0.00  -0.01     0.00   0.01  -0.01
  29   1    -0.00   0.00  -0.00     0.00   0.00  -0.01    -0.00  -0.00   0.00
  30   6    -0.01   0.00   0.00    -0.01   0.00  -0.01     0.01  -0.01   0.01
  31   8    -0.01   0.00   0.01    -0.01   0.00   0.01     0.01   0.00  -0.00
  32   7     0.00   0.00  -0.02     0.00  -0.02   0.07    -0.01   0.02  -0.08
  33   1     0.00  -0.00   0.00     0.00   0.02  -0.08    -0.00  -0.01   0.07
  34   1    -0.00  -0.00  -0.01    -0.00   0.06  -0.16    -0.00  -0.06   0.16
  35   7     0.01   0.01  -0.03     0.02   0.02  -0.06     0.00  -0.01  -0.00
  36   1    -0.02  -0.01   0.05    -0.04  -0.02   0.09     0.01   0.01  -0.03
  37   1    -0.00   0.01  -0.01    -0.01   0.01   0.01    -0.00  -0.00   0.01
  38   6     0.01   0.00   0.01    -0.00  -0.02   0.01    -0.02   0.00  -0.00
  39   8     0.02   0.01   0.01    -0.01  -0.02   0.01    -0.03  -0.01  -0.01
  40   7     0.00  -0.02   0.00     0.00   0.00   0.01     0.01  -0.00  -0.00
  41   1     0.01  -0.01   0.00    -0.00   0.00   0.00     0.00  -0.01   0.00
  42   1     0.02   0.01  -0.00    -0.01  -0.00   0.01    -0.01  -0.01  -0.01
  43   7     0.00   0.00   0.00     0.00   0.02  -0.02    -0.01  -0.01   0.02
  44   1    -0.03  -0.01  -0.00     0.00   0.00  -0.01     0.06   0.02   0.02
  45   1    -0.00   0.00   0.00    -0.02   0.01  -0.00     0.01  -0.01   0.00
  46   6     0.00  -0.00  -0.00     0.00  -0.00   0.00    -0.00   0.00  -0.01
  47   8     0.00  -0.00  -0.00     0.01  -0.00  -0.00    -0.00   0.00  -0.01
  48   7     0.00   0.00   0.00    -0.00   0.01   0.00    -0.00  -0.01   0.01
  49   1    -0.00   0.00   0.00    -0.00   0.00  -0.00     0.01  -0.00  -0.00
  50   1    -0.00   0.00   0.00     0.00   0.01  -0.01     0.00  -0.01  -0.01
  51   7     0.00  -0.00   0.00     0.00  -0.00  -0.00    -0.01   0.00   0.01
  52   1     0.00   0.00  -0.00    -0.01  -0.00   0.02     0.01   0.01  -0.03
  53   1    -0.00   0.00  -0.00    -0.00   0.00   0.00     0.00  -0.00  -0.01
                     37                     38                     39
                        a                      a                      a 
 Frequencies --   395.5225               405.4468               416.1903
 Red. masses --     3.2372                 3.0848                 2.7929
 Frc consts  --     0.0000                 0.0000                 0.0000
 IR Inten    --    65.8462               179.9344               289.9760
 Raman Activ --     0.0000                 0.0000                 0.0000
 Depolar     --     0.0000                 0.0000                 0.0000
 Atom AN      X      Y      Z        X      Y      Z        X      Y      Z
   1   8    -0.01   0.02  -0.01    -0.01   0.01   0.01     0.02  -0.01  -0.01
   2   6     0.00   0.03  -0.01    -0.00   0.02  -0.01    -0.00  -0.02   0.01
   3   1     0.00   0.02  -0.01     0.00   0.01  -0.00    -0.00  -0.02   0.01
   4   1    -0.00   0.00   0.01    -0.00   0.00   0.00     0.00  -0.00  -0.01
   5   6     0.02  -0.00  -0.02     0.01   0.01  -0.01    -0.01   0.01   0.03
   6   1    -0.00   0.01  -0.01     0.00   0.01  -0.01     0.00  -0.01   0.01
   7   1     0.01  -0.01  -0.01     0.00  -0.00  -0.00    -0.01   0.01   0.01
   8   7     0.03  -0.00   0.02     0.01   0.00   0.00    -0.01   0.01  -0.01
   9   6     0.04  -0.02  -0.00     0.02  -0.01   0.01    -0.01   0.00  -0.02
  10   1     0.08  -0.11  -0.05     0.02  -0.03  -0.01     0.02  -0.02  -0.02
  11   1     0.04   0.03   0.10     0.02   0.00   0.02     0.00   0.01   0.02
  12   1    -0.06   0.05  -0.07    -0.01   0.01  -0.01    -0.02   0.02  -0.02
  13   6    -0.07   0.01  -0.04    -0.02  -0.01  -0.01     0.00   0.00   0.00
  14   1    -0.04   0.03   0.01    -0.01   0.01  -0.00     0.01  -0.00  -0.00
  15   1    -0.02  -0.01  -0.02    -0.00  -0.01  -0.01     0.00  -0.00   0.00
  16   1    -0.03  -0.00  -0.03    -0.01  -0.00  -0.01    -0.00  -0.00   0.01
  17   6    -0.03  -0.04   0.07    -0.02  -0.02   0.02     0.01   0.03  -0.02
  18   1    -0.00   0.06  -0.00    -0.00   0.01   0.00     0.02   0.04  -0.01
  19   1    -0.07  -0.03   0.07    -0.02  -0.01   0.01    -0.02   0.00   0.02
  20   1     0.04  -0.08   0.00     0.01  -0.02   0.01     0.02  -0.02  -0.03
  21   1     0.01  -0.00  -0.01     0.02  -0.02  -0.03    -0.03   0.03   0.04
  22   6     0.00  -0.01   0.01    -0.01  -0.03   0.04     0.03   0.08  -0.08
  23   8    -0.00  -0.01   0.01    -0.02  -0.01   0.02     0.04   0.03  -0.03
  24   7     0.00   0.02   0.00     0.04   0.09  -0.07    -0.09  -0.18   0.15
  25   1    -0.00   0.00   0.01    -0.02  -0.03   0.02     0.03   0.04   0.02
  26   1    -0.01  -0.02   0.02    -0.09  -0.22   0.22     0.22   0.57  -0.56
  27   7     0.00   0.00  -0.01     0.02   0.04  -0.06    -0.05  -0.10   0.14
  28   1     0.00   0.00  -0.00    -0.01  -0.03   0.03     0.02   0.07  -0.06
  29   1    -0.00  -0.00   0.00    -0.01  -0.03   0.03     0.03   0.08  -0.09
  30   6    -0.02   0.01  -0.04    -0.02   0.01   0.02    -0.00   0.00   0.01
  31   8    -0.02  -0.01  -0.06    -0.02   0.01   0.01     0.00  -0.00   0.01
  32   7     0.02  -0.09   0.33     0.03  -0.04   0.10     0.01  -0.01   0.04
  33   1    -0.02   0.05  -0.26    -0.01   0.00  -0.05    -0.03  -0.01   0.01
  34   1     0.01   0.29  -0.69     0.01   0.11  -0.28     0.01   0.07  -0.15
  35   7    -0.01   0.02   0.01    -0.02   0.02  -0.00    -0.01  -0.00  -0.02
  36   1    -0.02  -0.00   0.06    -0.01   0.00   0.02    -0.04  -0.02   0.08
  37   1    -0.00   0.00  -0.00    -0.00  -0.01   0.02    -0.02   0.01   0.02
  38   6     0.04   0.00  -0.01    -0.01  -0.03  -0.00    -0.01  -0.02   0.00
  39   8     0.03   0.00  -0.00    -0.00  -0.02   0.01    -0.00  -0.02   0.01
  40   7    -0.02  -0.01  -0.00     0.04   0.04  -0.00     0.03   0.03   0.00
  41   1     0.01   0.01  -0.00    -0.02  -0.01   0.01    -0.01  -0.00   0.01
  42   1     0.06   0.04   0.00    -0.13  -0.08   0.01    -0.11  -0.07   0.01
  43   7     0.01  -0.01  -0.02     0.03   0.01  -0.03     0.02   0.01  -0.02
  44   1    -0.07  -0.03  -0.01    -0.02  -0.01  -0.02    -0.00  -0.00  -0.01
  45   1    -0.02  -0.00  -0.00    -0.02  -0.00  -0.00    -0.02   0.00  -0.00
  46   6    -0.01  -0.02   0.06     0.05   0.02  -0.13     0.01  -0.01  -0.04
  47   8     0.01  -0.01   0.03     0.02  -0.00  -0.07     0.00  -0.01  -0.01
  48   7     0.01   0.04  -0.07    -0.03  -0.03   0.17    -0.03   0.00   0.06
  49   1    -0.03  -0.00   0.02     0.03   0.02  -0.08    -0.00   0.00   0.00
  50   1    -0.01   0.01   0.04     0.03   0.01  -0.07     0.03   0.02  -0.10
  51   7     0.04  -0.00  -0.11    -0.07  -0.02   0.23    -0.01  -0.02   0.09
  52   1    -0.09  -0.05   0.30     0.23   0.10  -0.72     0.08   0.04  -0.25
  53   1    -0.02  -0.00   0.04     0.03  -0.00  -0.06     0.01  -0.01  -0.02
                     40                     41                     42
                        a                      a                      a 
 Frequencies --   422.1976               439.0502               460.1442
 Red. masses --     8.3355                 3.0006                 6.2073
 Frc consts  --     0.0000                 0.0000                 0.0000
 IR Inten    --     8.4031               300.2797                35.3923
 Raman Activ --     0.0000                 0.0000                 0.0000
 Depolar     --     0.0000                 0.0000                 0.0000
 Atom AN      X      Y      Z        X      Y      Z        X      Y      Z
   1   8    -0.18  -0.14   0.01    -0.00  -0.01  -0.00     0.03   0.03  -0.03
   2   6    -0.08   0.16  -0.10     0.00   0.04  -0.02    -0.00  -0.10   0.04
   3   1    -0.03   0.08  -0.04     0.00   0.01  -0.00     0.00  -0.00   0.01
   4   1    -0.02   0.05   0.02     0.01   0.01  -0.00    -0.03  -0.04   0.02
   5   6     0.17   0.07   0.03    -0.01   0.04  -0.01    -0.03  -0.19  -0.13
   6   1     0.12   0.02   0.03     0.00   0.01  -0.00    -0.19  -0.03  -0.10
   7   1    -0.00  -0.01   0.09    -0.01   0.01   0.00     0.09  -0.14  -0.18
   8   7     0.29   0.08  -0.01    -0.02   0.03   0.00     0.12  -0.03   0.26
   9   6     0.27   0.06  -0.16     0.03  -0.03   0.00    -0.13   0.09  -0.24
  10   1     0.06   0.09  -0.04     0.00  -0.01   0.01     0.03   0.15  -0.14
  11   1     0.07  -0.00  -0.13     0.03  -0.00  -0.01    -0.11  -0.02  -0.13
  12   1     0.09  -0.06  -0.01     0.01  -0.03   0.01    -0.09  -0.02  -0.08
  13   6    -0.27  -0.25  -0.18    -0.01  -0.02   0.02    -0.20   0.13   0.06
  14   1    -0.16   0.04   0.02     0.01   0.01  -0.00    -0.13   0.08   0.08
  15   1    -0.01  -0.22  -0.15     0.01  -0.03   0.02    -0.07   0.04  -0.04
  16   1    -0.23  -0.11  -0.07    -0.03  -0.01   0.01    -0.05   0.03  -0.06
  17   6    -0.10   0.03   0.35    -0.01  -0.03  -0.01     0.28   0.05   0.15
  18   1    -0.16   0.00   0.04     0.00  -0.01   0.00     0.10  -0.02   0.07
  19   1    -0.05   0.01   0.14    -0.01  -0.01  -0.01     0.13   0.03   0.00
  20   1     0.00   0.01   0.21     0.00  -0.01   0.00     0.03   0.06   0.01
  21   1    -0.02  -0.01   0.11     0.00   0.00   0.02    -0.01   0.00  -0.05
  22   6    -0.01   0.00  -0.01    -0.00  -0.01   0.00     0.00   0.00  -0.01
  23   8     0.00  -0.00  -0.00     0.00  -0.00  -0.00     0.00  -0.00  -0.01
  24   7    -0.01  -0.01   0.00     0.00   0.02  -0.01    -0.01   0.00   0.02
  25   1    -0.00  -0.00   0.00     0.00   0.01  -0.01     0.00   0.01   0.01
  26   1     0.01   0.02  -0.02    -0.02  -0.05   0.05    -0.00   0.03  -0.02
  27   7    -0.00   0.00   0.01     0.01   0.01  -0.01     0.00  -0.00   0.01
  28   1     0.00  -0.00   0.01     0.00  -0.01   0.01     0.02   0.03  -0.03
  29   1     0.00   0.01  -0.01    -0.00  -0.01   0.01    -0.01  -0.02   0.03
  30   6     0.00  -0.00   0.01     0.03   0.01  -0.03    -0.03   0.03   0.01
  31   8     0.00   0.00   0.01     0.04   0.03  -0.02    -0.07  -0.05  -0.01
  32   7    -0.00   0.01  -0.04     0.01   0.00  -0.02     0.02  -0.04   0.09
  33   1     0.00  -0.00   0.03    -0.04  -0.03   0.10     0.15   0.08  -0.31
  34   1    -0.00  -0.03   0.08     0.01   0.04  -0.01    -0.03  -0.15   0.08
  35   7     0.01   0.00  -0.02    -0.04  -0.03   0.03     0.02   0.06   0.01
  36   1    -0.01  -0.01   0.02    -0.00  -0.01  -0.02     0.08   0.09  -0.13
  37   1     0.00   0.00  -0.00    -0.01   0.01  -0.01     0.03  -0.03   0.05
  38   6     0.01   0.00   0.00    -0.05  -0.09   0.01     0.00   0.02  -0.02
  39   8     0.01   0.00  -0.00    -0.03  -0.07   0.07    -0.00   0.03   0.03
  40   7    -0.01   0.00   0.01     0.16   0.22   0.00     0.01  -0.01  -0.04
  41   1    -0.00   0.00  -0.00     0.01  -0.00   0.04     0.03  -0.02   0.01
  42   1     0.02   0.01   0.00    -0.72  -0.46   0.03    -0.09  -0.07  -0.02
  43   7    -0.01   0.01  -0.00     0.16   0.06  -0.07     0.04  -0.01   0.01
  44   1    -0.03  -0.01  -0.01    -0.01  -0.00  -0.04     0.06   0.02   0.05
  45   1     0.01   0.02  -0.00    -0.18  -0.06   0.01    -0.11  -0.11   0.00
  46   6    -0.00  -0.00  -0.00    -0.03   0.01   0.02     0.04  -0.03   0.01
  47   8    -0.00   0.00  -0.01    -0.03   0.00   0.00     0.06   0.02   0.02
  48   7    -0.00  -0.00   0.00     0.03  -0.02  -0.04    -0.04   0.06   0.01
  49   1     0.00  -0.00   0.00     0.01  -0.01   0.05    -0.05   0.02  -0.09
  50   1     0.00  -0.00  -0.01    -0.01  -0.03   0.00    -0.01   0.07   0.06
  51   7     0.00  -0.00   0.00     0.03   0.03  -0.05    -0.04  -0.05  -0.03
  52   1     0.00   0.00  -0.01    -0.06  -0.01   0.20    -0.01  -0.03  -0.04
  53   1     0.00  -0.00  -0.00     0.01   0.00  -0.00    -0.03  -0.00   0.00
                     43                     44                     45
                        a                      a                      a 
 Frequencies --   461.0640               462.2044               468.5881
 Red. masses --     5.8597                 5.2655                 5.3192
 Frc consts  --     0.0000                 0.0000                 0.0000
 IR Inten    --     9.2895                 8.0252                 3.6191
 Raman Activ --     0.0000                 0.0000                 0.0000
 Depolar     --     0.0000                 0.0000                 0.0000
 Atom AN      X      Y      Z        X      Y      Z        X      Y      Z
   1   8     0.02   0.02  -0.01    -0.00   0.00   0.01    -0.02  -0.02   0.01
   2   6    -0.01  -0.12   0.06    -0.02  -0.09   0.05     0.02   0.18  -0.09
   3   1    -0.01  -0.02   0.01    -0.02  -0.03   0.01     0.01   0.05  -0.02
   4   1    -0.03  -0.05   0.02    -0.02  -0.03   0.01     0.03   0.07  -0.03
   5   6     0.02  -0.17  -0.01     0.07  -0.07   0.11    -0.05   0.20  -0.05
   6   1    -0.06  -0.05  -0.02     0.11  -0.05   0.07    -0.00   0.07  -0.02
   7   1     0.04  -0.07  -0.05    -0.03   0.03   0.11    -0.02   0.05  -0.01
   8   7     0.10  -0.08   0.06     0.04  -0.10  -0.19    -0.11   0.13   0.06
   9   6    -0.09   0.12  -0.06    -0.00   0.10   0.15     0.09  -0.19  -0.04
  10   1    -0.02   0.11  -0.03    -0.05  -0.01   0.09     0.03  -0.08  -0.01
  11   1    -0.10   0.00  -0.03    -0.03   0.03   0.10     0.11  -0.03  -0.05
  12   1    -0.01   0.05  -0.02     0.06   0.12   0.04    -0.01  -0.14   0.01
  13   6    -0.05   0.09  -0.09     0.13   0.00  -0.22    -0.04  -0.11   0.21
  14   1    -0.06   0.05   0.02     0.04  -0.00  -0.07     0.04  -0.04   0.02
  15   1    -0.04   0.05  -0.05     0.02   0.03  -0.04     0.03  -0.09   0.08
  16   1     0.01   0.02  -0.07     0.06   0.01  -0.07    -0.06  -0.04   0.11
  17   6     0.07   0.09   0.09    -0.19   0.09   0.00     0.04  -0.13  -0.08
  18   1    -0.01   0.03   0.01    -0.12   0.08  -0.05     0.08  -0.07   0.02
  19   1     0.06   0.04   0.05    -0.06   0.03   0.09    -0.01  -0.05  -0.10
  20   1    -0.01   0.06   0.02    -0.04   0.01   0.03     0.02  -0.06  -0.03
  21   1    -0.02   0.01  -0.04    -0.02   0.01  -0.00     0.03  -0.01   0.04
  22   6    -0.00  -0.02  -0.01     0.01   0.04   0.05    -0.02  -0.06  -0.08
  23   8     0.01  -0.02  -0.02    -0.04   0.06   0.05     0.07  -0.08  -0.07
  24   7    -0.03   0.02   0.01     0.09  -0.05  -0.03    -0.14   0.05   0.04
  25   1     0.00   0.02   0.00    -0.00  -0.05  -0.02     0.00   0.07   0.02
  26   1    -0.03  -0.02   0.02     0.06  -0.01  -0.00    -0.08   0.03  -0.01
  27   7     0.03   0.02   0.01    -0.06  -0.04  -0.05     0.08   0.06   0.07
  28   1     0.04   0.01  -0.00    -0.10  -0.03   0.00     0.15   0.07  -0.03
  29   1    -0.01   0.00   0.04     0.03  -0.02  -0.10    -0.06   0.00   0.18
  30   6     0.11  -0.06  -0.04    -0.04   0.03   0.02    -0.00  -0.00   0.01
  31   8     0.16   0.06   0.01    -0.07  -0.03   0.00    -0.00  -0.02   0.01
  32   7    -0.05   0.12  -0.03     0.02  -0.04   0.02    -0.01   0.01   0.03
  33   1    -0.26  -0.08   0.38     0.10   0.04  -0.16     0.02   0.02  -0.07
  34   1     0.05   0.28  -0.11    -0.02  -0.10   0.02    -0.01  -0.01   0.01
  35   7    -0.15  -0.13  -0.01     0.05   0.06  -0.01    -0.01   0.01  -0.02
  36   1    -0.07  -0.10  -0.02    -0.00   0.01   0.05     0.01   0.01  -0.04
  37   1    -0.08   0.02  -0.02     0.02   0.01  -0.01    -0.00  -0.00   0.01
  38   6    -0.03   0.09  -0.04     0.01   0.08  -0.06     0.06   0.03  -0.03
  39   8    -0.02   0.12   0.04     0.01   0.12   0.08     0.07   0.05   0.05
  40   7     0.01  -0.12  -0.12    -0.05  -0.09  -0.11    -0.14  -0.05  -0.02
  41   1     0.01  -0.07  -0.00     0.05  -0.03  -0.01     0.01   0.03  -0.02
  42   1     0.07   0.00  -0.09    -0.03  -0.05  -0.06     0.11   0.09   0.02
  43   7     0.02  -0.06   0.10     0.06  -0.04   0.04     0.02   0.02  -0.05
  44   1     0.14   0.05   0.16     0.28   0.10   0.18     0.29   0.11   0.09
  45   1    -0.09  -0.20   0.00    -0.36  -0.36   0.01    -0.42  -0.28   0.01
  46   6    -0.08   0.06  -0.02     0.05  -0.03   0.02    -0.02   0.02  -0.02
  47   8    -0.12  -0.03  -0.05     0.07   0.01   0.04    -0.03  -0.01  -0.03
  48   7     0.06  -0.12  -0.01    -0.03   0.07   0.01     0.01  -0.02  -0.00
  49   1     0.09  -0.04   0.16    -0.05   0.03  -0.12    -0.00  -0.03   0.16
  50   1     0.02  -0.13  -0.12    -0.02   0.07   0.09     0.03  -0.03  -0.12
  51   7     0.09   0.10   0.06    -0.05  -0.05  -0.04     0.03   0.02   0.05
  52   1     0.04   0.07   0.04    -0.02  -0.04  -0.03     0.02   0.02  -0.01
  53   1     0.06  -0.00   0.00    -0.04   0.01   0.00     0.02  -0.00  -0.01
                     46                     47                     48
                        a                      a                      a 
 Frequencies --   469.1333               472.6990               475.7713
 Red. masses --     2.4021                 4.5015                 5.8231
 Frc consts  --     0.0000                 0.0000                 0.0000
 IR Inten    --     7.2890                11.8522                30.8793
 Raman Activ --     0.0000                 0.0000                 0.0000
 Depolar     --     0.0000                 0.0000                 0.0000
 Atom AN      X      Y      Z        X      Y      Z        X      Y      Z
   1   8     0.00   0.01   0.00    -0.01  -0.00  -0.00     0.00   0.00  -0.00
   2   6    -0.01  -0.05   0.03     0.02   0.08  -0.04     0.00  -0.00  -0.00
   3   1    -0.01  -0.02   0.01     0.01   0.02  -0.01     0.00  -0.00   0.00
   4   1    -0.01  -0.02   0.01     0.01   0.03  -0.01     0.00  -0.00  -0.00
   5   6     0.03  -0.06   0.04    -0.04   0.07  -0.06    -0.01  -0.00  -0.02
   6   1     0.03  -0.02   0.02    -0.05   0.03  -0.03    -0.03   0.00  -0.01
   7   1    -0.00  -0.00   0.03     0.01  -0.00  -0.05     0.01  -0.01  -0.03
   8   7     0.03  -0.05  -0.06    -0.04   0.06   0.09     0.01   0.01   0.04
   9   6    -0.02   0.06   0.05     0.02  -0.09  -0.07    -0.01  -0.00  -0.05
  10   1    -0.02   0.01   0.02     0.02  -0.01  -0.04     0.01   0.01  -0.03
  11   1    -0.02   0.01   0.04     0.04  -0.02  -0.06    -0.01  -0.00  -0.02
  12   1     0.01   0.05   0.01    -0.02  -0.08  -0.01    -0.02  -0.01  -0.02
  13   6     0.04   0.02  -0.09    -0.06  -0.03   0.13    -0.03   0.01   0.03
  14   1     0.00   0.01  -0.02    -0.01  -0.00   0.03    -0.02   0.00   0.02
  15   1     0.00   0.03  -0.02    -0.00  -0.03   0.03    -0.01  -0.00  -0.00
  16   1     0.03   0.01  -0.04    -0.04  -0.01   0.05    -0.01   0.00   0.01
  17   6    -0.06   0.04   0.02     0.08  -0.07  -0.02     0.05  -0.00   0.01
  18   1    -0.04   0.04  -0.02     0.06  -0.05   0.03     0.02  -0.01   0.01
  19   1    -0.02   0.02   0.04     0.02  -0.03  -0.06     0.02  -0.00  -0.01
  20   1    -0.01   0.01   0.01     0.02  -0.01  -0.01     0.01   0.00  -0.00
  21   1    -0.01  -0.00  -0.02     0.02  -0.01   0.00    -0.00   0.00  -0.00
  22   6     0.00   0.04   0.03     0.04   0.08   0.16     0.01   0.07   0.02
  23   8    -0.01   0.04   0.02    -0.15   0.12   0.13    -0.00   0.08   0.03
  24   7     0.04  -0.05   0.00     0.25  -0.04  -0.08     0.06  -0.09   0.02
  25   1     0.01  -0.01  -0.05    -0.01  -0.12   0.01     0.02  -0.01  -0.09
  26   1     0.04  -0.04   0.03     0.13  -0.02  -0.00     0.06  -0.06   0.05
  27   7    -0.04  -0.01  -0.04    -0.12  -0.10  -0.09    -0.08  -0.02  -0.07
  28   1    -0.02   0.05  -0.07    -0.33  -0.25   0.19    -0.01   0.13  -0.16
  29   1    -0.02  -0.09   0.05     0.19   0.16  -0.54    -0.06  -0.21   0.17
  30   6    -0.01   0.00   0.03     0.00  -0.01  -0.01    -0.11   0.06  -0.01
  31   8    -0.02  -0.05   0.02     0.02   0.02  -0.01    -0.14   0.04  -0.05
  32   7    -0.01   0.01   0.08     0.00  -0.01  -0.01     0.09  -0.17  -0.17
  33   1     0.10   0.09  -0.32    -0.04  -0.03   0.09     0.01  -0.14   0.45
  34   1    -0.02  -0.10   0.09     0.01   0.04  -0.03     0.01  -0.02  -0.18
  35   7     0.01   0.04  -0.04    -0.01  -0.02   0.03     0.15   0.07   0.13
  36   1     0.04   0.04  -0.08     0.04   0.04  -0.06     0.00   0.04   0.19
[...]
  44   1     0.00  -0.00   0.00     0.00  -0.00   0.00     0.00  -0.00   0.00
  45   1    -0.00  -0.00  -0.00     0.00   0.00  -0.00    -0.00   0.00  -0.00
  46   6    -0.01   0.00  -0.00    -0.01   0.00  -0.00    -0.00   0.00  -0.00
  47   8     0.00  -0.00  -0.00     0.01   0.00   0.00     0.00   0.00   0.00
  48   7     0.00   0.00   0.00     0.00  -0.00  -0.00    -0.00  -0.00  -0.00
  49   1    -0.00   0.01   0.00    -0.00   0.02   0.00    -0.00   0.01   0.00
  50   1     0.00  -0.00   0.00     0.01  -0.00   0.00     0.00  -0.00   0.00
  51   7    -0.07  -0.08  -0.03    -0.01  -0.01  -0.00    -0.00   0.00  -0.00
  52   1    -0.04   0.01  -0.01    -0.01   0.00  -0.00     0.00  -0.00   0.00
  53   1     0.31   0.28   0.11     0.04   0.03   0.01    -0.00  -0.00  -0.00
                    142                    143                    144
                        a                      a                      a 
 Frequencies --  3489.4456              3496.1876              3503.3897
 Red. masses --     1.4570                 1.4540                 1.4501
 Frc consts  --     0.0000                 0.0000                 0.0000
 IR Inten    --    17.3883                13.2424                15.6781
 Raman Activ --     0.0000                 0.0000                 0.0000
 Depolar     --     0.0000                 0.0000                 0.0000
 Atom AN      X      Y      Z        X      Y      Z        X      Y      Z
   1   8    -0.00  -0.00   0.00    -0.00  -0.00   0.00     0.00   0.00  -0.00
   2   6     0.00   0.00   0.00     0.00   0.00   0.00     0.00   0.00  -0.00
   3   1    -0.00   0.00  -0.00     0.00  -0.00  -0.00    -0.00   0.00   0.00
   4   1     0.00   0.00  -0.00     0.00  -0.00  -0.00     0.00  -0.00  -0.00
   5   6     0.00  -0.00   0.00     0.00  -0.00   0.00    -0.00   0.00   0.00
   6   1     0.00  -0.00  -0.00     0.00  -0.00  -0.00     0.00  -0.00  -0.00
   7   1    -0.00   0.00  -0.00    -0.00   0.00  -0.00     0.00   0.00   0.00
   8   7    -0.00   0.00   0.00     0.00  -0.00  -0.00     0.00  -0.00   0.00
   9   6    -0.00   0.00   0.00    -0.00   0.00  -0.00    -0.00   0.00   0.00
  10   1    -0.00   0.00  -0.00    -0.00   0.00  -0.00     0.00   0.00   0.00
  11   1    -0.00  -0.00   0.00     0.00  -0.00   0.00     0.00  -0.00   0.00
  12   1     0.00  -0.00  -0.00    -0.00   0.00  -0.00     0.00  -0.00  -0.00
  13   6     0.00  -0.00   0.00    -0.00   0.00  -0.00    -0.00   0.00  -0.00
  14   1     0.00  -0.00  -0.00    -0.00   0.00  -0.00     0.00  -0.00   0.00
  15   1     0.00   0.00  -0.00     0.00   0.00  -0.00     0.00   0.00  -0.00
  16   1    -0.00   0.00  -0.00     0.00  -0.00   0.00     0.00  -0.00   0.00
  17   6     0.00  -0.00  -0.00    -0.00   0.00   0.00    -0.00   0.00   0.00
  18   1    -0.00  -0.00   0.00     0.00   0.00  -0.00     0.00  -0.00  -0.00
  19   1    -0.00   0.00   0.00     0.00  -0.00  -0.00    -0.00   0.00   0.00
  20   1     0.00   0.00  -0.00    -0.00  -0.00   0.00     0.00   0.00  -0.00
  21   1     0.00   0.00  -0.00     0.00   0.00  -0.00    -0.00  -0.00   0.00
  22   6     0.00   0.00   0.00     0.00  -0.00  -0.00     0.00  -0.00  -0.00
  23   8    -0.00  -0.00  -0.00    -0.00   0.00   0.00     0.00   0.00   0.00
  24   7    -0.00   0.00  -0.00    -0.00  -0.00  -0.00    -0.01   0.01   0.01
  25   1     0.00  -0.00  -0.00     0.00  -0.00  -0.00     0.02  -0.01  -0.00
  26   1    -0.00   0.00   0.00    -0.00   0.00   0.00     0.00  -0.03  -0.03
  27   7    -0.00   0.00   0.00    -0.00   0.00   0.00     0.15  -0.09  -0.05
  28   1     0.00  -0.00  -0.00     0.00  -0.00  -0.00    -0.01   0.52   0.50
  29   1     0.00   0.00   0.00     0.00   0.00   0.00    -0.54  -0.18  -0.31
  30   6    -0.00  -0.00   0.00     0.00  -0.00  -0.00    -0.00  -0.00  -0.00
  31   8     0.00  -0.00  -0.00    -0.00   0.00   0.00     0.00   0.00   0.00
  32   7    -0.13  -0.12  -0.02     0.00   0.00   0.00     0.00  -0.00  -0.00
  33   1    -0.13   0.68   0.14     0.00  -0.01  -0.00    -0.00   0.00   0.00
  34   1     0.64  -0.21  -0.08    -0.01   0.00   0.00    -0.00   0.00   0.00
  35   7    -0.02   0.01  -0.00    -0.00   0.00   0.00    -0.01   0.00  -0.00
  36   1     0.09  -0.04   0.03     0.00  -0.00   0.00     0.02  -0.01   0.01
  37   1    -0.00   0.00  -0.00    -0.00  -0.00  -0.00     0.00   0.00   0.00
  38   6    -0.00   0.00  -0.00    -0.00  -0.00  -0.00     0.00  -0.00  -0.00
  39   8     0.00  -0.00  -0.00    -0.00   0.00  -0.00    -0.00   0.00   0.00
  40   7     0.00  -0.00  -0.00    -0.01   0.01   0.00     0.00  -0.00   0.00
  41   1    -0.00   0.01   0.01     0.00  -0.01  -0.01     0.00  -0.00  -0.00
  42   1    -0.00   0.00  -0.00     0.03  -0.04   0.01    -0.00   0.00  -0.00
  43   7     0.00  -0.00  -0.00     0.02  -0.13  -0.12    -0.00  -0.00  -0.00
  44   1    -0.00   0.01  -0.00    -0.22   0.68  -0.15    -0.00   0.00  -0.00
  45   1     0.00  -0.00   0.01     0.14  -0.18   0.61     0.00  -0.00   0.00
  46   6    -0.00  -0.00  -0.00    -0.00  -0.00  -0.00    -0.00  -0.00  -0.00
  47   8     0.00   0.00   0.00    -0.00   0.00   0.00     0.00  -0.00   0.00
  48   7    -0.00  -0.00  -0.00    -0.00  -0.00  -0.00    -0.02  -0.01  -0.01
  49   1    -0.00   0.00   0.00    -0.00   0.00   0.00    -0.02   0.09   0.01
  50   1     0.00  -0.00   0.00     0.00  -0.00   0.00     0.09  -0.04   0.03
  51   7     0.00   0.00   0.00     0.00   0.00   0.00     0.00   0.00   0.00
  52   1     0.01  -0.00   0.00     0.00  -0.00   0.00    -0.01   0.00  -0.00
  53   1    -0.01  -0.01  -0.00    -0.00  -0.00  -0.00    -0.00  -0.00  -0.00
                    145                    146                    147
                        a                      a                      a 
 Frequencies --  3503.8923              3524.6361              3534.2391
 Red. masses --     1.4493                 1.8983                 1.9589
 Frc consts  --     0.0000                 0.0000                 0.0000
 IR Inten    --    15.8183                12.2504                21.0974
 Raman Activ --     0.0000                 0.0000                 0.0000
 Depolar     --     0.0000                 0.0000                 0.0000
 Atom AN      X      Y      Z        X      Y      Z        X      Y      Z
   1   8    -0.00  -0.00   0.00    -0.00  -0.00   0.00     0.00   0.00  -0.00
   2   6     0.00  -0.00   0.00    -0.00   0.00   0.00    -0.00   0.00  -0.00
   3   1    -0.00   0.00   0.00     0.00   0.00  -0.00     0.00   0.00  -0.00
   4   1    -0.00   0.00  -0.00     0.00  -0.00  -0.00     0.00  -0.00  -0.00
   5   6     0.00  -0.00   0.00     0.00   0.00  -0.00    -0.00  -0.00  -0.00
   6   1     0.00  -0.00  -0.00    -0.00   0.00   0.00    -0.00  -0.00   0.00
   7   1    -0.00   0.00  -0.00    -0.00  -0.00  -0.00     0.00  -0.00   0.00
   8   7    -0.00  -0.00  -0.00     0.00  -0.00  -0.00     0.00   0.00   0.00
   9   6    -0.00   0.00   0.00     0.00  -0.00  -0.00     0.00  -0.00   0.00
  10   1    -0.00  -0.00  -0.00    -0.00  -0.00  -0.00     0.00   0.00  -0.00
  11   1     0.00   0.00   0.00    -0.00   0.00  -0.00    -0.00   0.00  -0.00
  12   1     0.00  -0.00  -0.00    -0.00   0.00   0.00     0.00   0.00   0.00
  13   6     0.00   0.00   0.00     0.00  -0.00   0.00    -0.00  -0.00   0.00
  14   1    -0.00  -0.00  -0.00    -0.00  -0.00  -0.00     0.00  -0.00   0.00
  15   1    -0.00  -0.00   0.00     0.00   0.00  -0.00     0.00   0.00  -0.00
  16   1     0.00   0.00   0.00     0.00   0.00  -0.00    -0.00   0.00  -0.00
  17   6    -0.00  -0.00  -0.00     0.00  -0.00  -0.00     0.00  -0.00  -0.00
  18   1     0.00  -0.00   0.00    -0.00   0.00   0.00    -0.00   0.00   0.00
  19   1     0.00   0.00   0.00     0.00   0.00   0.00    -0.00  -0.00  -0.00
  20   1     0.00  -0.00   0.00     0.00  -0.00   0.00    -0.00  -0.00  -0.00
  21   1     0.00   0.00  -0.00     0.00   0.00  -0.00    -0.00  -0.00   0.00
  22   6     0.00  -0.00  -0.00     0.00  -0.00  -0.00     0.01  -0.01  -0.00
  23   8     0.00   0.00   0.00    -0.00   0.00  -0.00    -0.00   0.00   0.00
  24   7    -0.00   0.00  -0.00     0.00  -0.00  -0.00     0.05  -0.20  -0.17
  25   1     0.01  -0.01  -0.00    -0.00  -0.00  -0.00    -0.14   0.09  -0.01
  26   1    -0.00   0.01   0.01    -0.00   0.00   0.00    -0.05   0.67   0.67
  27   7     0.02  -0.01  -0.01    -0.00   0.00   0.00     0.02   0.01   0.01
  28   1    -0.00   0.07   0.07     0.00  -0.00  -0.00     0.00  -0.01  -0.01
  29   1    -0.08  -0.03  -0.04     0.00   0.00   0.00    -0.07  -0.02  -0.04
  30   6     0.00   0.00   0.00     0.00  -0.00   0.00    -0.00   0.00  -0.00
  31   8    -0.00  -0.00  -0.00    -0.00   0.00  -0.00     0.00   0.00   0.00
  32   7     0.00  -0.00  -0.00     0.00  -0.00  -0.00     0.00  -0.00  -0.00
  33   1    -0.00   0.00   0.00    -0.00   0.00   0.00    -0.00   0.00   0.00
  34   1    -0.00  -0.00   0.00    -0.01   0.00   0.00    -0.00   0.00   0.00
  35   7    -0.00  -0.00  -0.00    -0.00   0.00   0.00     0.00   0.00   0.00
  36   1     0.01  -0.01   0.00     0.00  -0.00   0.00    -0.00   0.00  -0.00
  37   1     0.01   0.01   0.00    -0.00  -0.00  -0.00    -0.01  -0.01  -0.00
  38   6    -0.00   0.00   0.00     0.01  -0.01  -0.00    -0.00   0.00  -0.00
  39   8    -0.00  -0.00  -0.00    -0.00   0.00   0.00     0.00  -0.00   0.00
  40   7    -0.00   0.00  -0.00     0.14  -0.22   0.03    -0.00   0.00   0.00
  41   1    -0.00   0.00   0.00    -0.00   0.04   0.07     0.00  -0.00  -0.00
  42   1     0.00  -0.00   0.00    -0.54   0.78  -0.17     0.00  -0.00   0.00
  43   7     0.00  -0.00  -0.00    -0.01   0.01  -0.02     0.00  -0.00   0.00
  44   1    -0.00   0.00  -0.00     0.00  -0.01   0.00     0.00  -0.00   0.00
  45   1     0.00  -0.00   0.00     0.02  -0.02   0.08    -0.00   0.00  -0.00
  46   6     0.00   0.00   0.00    -0.00  -0.00  -0.00     0.00  -0.00   0.00
  47   8    -0.00   0.00  -0.00     0.00   0.00   0.00    -0.00   0.00  -0.00
  48   7     0.14   0.09   0.07     0.00  -0.00  -0.00    -0.00   0.00  -0.00
  49   1     0.14  -0.62  -0.09    -0.00   0.00   0.00    -0.00   0.00   0.00
  50   1    -0.65   0.27  -0.19    -0.00   0.00  -0.00     0.01  -0.01   0.00
  51   7    -0.01  -0.00  -0.00    -0.00   0.00  -0.00    -0.00   0.00  -0.00
  52   1     0.04  -0.02   0.01     0.01  -0.01   0.00     0.02  -0.01   0.00
  53   1     0.01   0.01   0.00    -0.00  -0.00  -0.00    -0.00  -0.00  -0.00
                    148                    149                    150
                        a                      a                      a 
 Frequencies --  3536.9415              3553.4372              3561.0118
 Red. masses --     1.8906                 2.1767                 2.1733
 Frc consts  --     0.0000                 0.0000                 0.0000
 IR Inten    --    14.5152                13.1701                 7.3833
 Raman Activ --     0.0000                 0.0000                 0.0000
 Depolar     --     0.0000                 0.0000                 0.0000
 Atom AN      X      Y      Z        X      Y      Z        X      Y      Z
   1   8     0.00   0.00  -0.00     0.00   0.00  -0.00    -0.00  -0.00   0.00
   2   6    -0.00   0.00   0.00     0.00   0.00  -0.00    -0.00   0.00  -0.00
   3   1     0.00  -0.00  -0.00     0.00   0.00  -0.00    -0.00   0.00  -0.00
   4   1     0.00  -0.00   0.00     0.00   0.00  -0.00     0.00  -0.00  -0.00
   5   6    -0.00  -0.00   0.00    -0.00  -0.00   0.00    -0.00   0.00  -0.00
   6   1     0.00  -0.00  -0.00     0.00  -0.00  -0.00    -0.00  -0.00   0.00
   7   1     0.00  -0.00  -0.00     0.00  -0.00  -0.00     0.00  -0.00  -0.00
   8   7    -0.00  -0.00  -0.00    -0.00  -0.00   0.00    -0.00   0.00   0.00
   9   6     0.00  -0.00   0.00     0.00  -0.00   0.00     0.00  -0.00   0.00
  10   1    -0.00   0.00  -0.00     0.00  -0.00  -0.00    -0.00  -0.00  -0.00
  11   1    -0.00   0.00  -0.00    -0.00   0.00  -0.00    -0.00   0.00   0.00
  12   1     0.00   0.00  -0.00     0.00  -0.00  -0.00     0.00  -0.00   0.00
  13   6     0.00  -0.00   0.00    -0.00   0.00  -0.00     0.00  -0.00   0.00
  14   1     0.00  -0.00  -0.00     0.00  -0.00   0.00     0.00  -0.00   0.00
  15   1    -0.00  -0.00   0.00     0.00   0.00  -0.00     0.00  -0.00  -0.00
  16   1    -0.00   0.00  -0.00     0.00  -0.00  -0.00    -0.00   0.00  -0.00
  17   6     0.00  -0.00   0.00     0.00  -0.00   0.00     0.00  -0.00  -0.00
  18   1     0.00  -0.00  -0.00    -0.00  -0.00   0.00     0.00  -0.00   0.00
  19   1    -0.00   0.00   0.00    -0.00   0.00  -0.00    -0.00   0.00   0.00
  20   1    -0.00  -0.00   0.00     0.00  -0.00  -0.00     0.00   0.00   0.00
  21   1    -0.00  -0.00   0.00    -0.00  -0.00   0.00     0.00   0.00  -0.00
  22   6    -0.00   0.00   0.00     0.00   0.00   0.00    -0.00   0.00   0.00
  23   8     0.00  -0.00  -0.00    -0.00  -0.00  -0.00     0.00  -0.00  -0.00
  24   7    -0.00   0.00   0.00    -0.00  -0.00  -0.00    -0.00   0.00   0.00
  25   1     0.00  -0.00   0.00     0.00  -0.00  -0.00     0.00  -0.00   0.00
  26   1     0.00  -0.01  -0.01    -0.00   0.00   0.00     0.00  -0.00  -0.00
  27   7    -0.00  -0.00  -0.00     0.00   0.00   0.00    -0.00  -0.00  -0.00
  28   1    -0.00   0.00   0.00     0.00  -0.00  -0.00    -0.00   0.00   0.00
  29   1     0.00   0.00   0.00    -0.00  -0.00  -0.00     0.00   0.00   0.00
  30   6    -0.00   0.00   0.00    -0.01   0.01   0.00     0.00  -0.00   0.00
  31   8     0.00  -0.00   0.00     0.00  -0.00  -0.00    -0.00   0.00   0.00
  32   7     0.00  -0.00  -0.00    -0.20   0.22   0.05    -0.00   0.00   0.00
  33   1    -0.00   0.01   0.00     0.10  -0.64  -0.12     0.00  -0.01  -0.00
  34   1    -0.01   0.00   0.00     0.65  -0.19  -0.08     0.00  -0.00  -0.00
  35   7     0.00  -0.00   0.00    -0.01   0.00  -0.00     0.00   0.00   0.00
  36   1    -0.01   0.00  -0.00     0.02  -0.01   0.01    -0.00   0.00  -0.00
  37   1     0.00   0.00   0.00     0.00   0.00   0.00    -0.00  -0.00   0.00
  38   6    -0.00   0.00  -0.00     0.00  -0.00   0.00     0.00  -0.01   0.01
  39   8     0.00  -0.00   0.00    -0.00   0.00   0.00    -0.00   0.00  -0.00
  40   7    -0.00   0.00   0.00     0.00  -0.00   0.00     0.01  -0.01   0.00
  41   1     0.00  -0.00  -0.00     0.00  -0.00  -0.00    -0.00   0.00   0.01
  42   1     0.01  -0.01   0.00    -0.01   0.01  -0.00    -0.04   0.06  -0.01
  43   7     0.00  -0.00   0.00    -0.00   0.00  -0.00     0.09  -0.20   0.20
  44   1    -0.00   0.00  -0.00     0.00  -0.00   0.00    -0.18   0.60  -0.10
  45   1    -0.00   0.00  -0.00     0.00  -0.00   0.01    -0.15   0.16  -0.67
  46   6    -0.01  -0.00  -0.00    -0.00   0.00  -0.00     0.00  -0.00   0.00
  47   8     0.00  -0.00   0.00     0.00   0.00   0.00    -0.00   0.00  -0.00
  48   7     0.01  -0.02  -0.00     0.00  -0.00   0.00    -0.00   0.00  -0.00
  49   1    -0.02   0.08   0.01    -0.00   0.00   0.00     0.00  -0.00  -0.00
  50   1    -0.01   0.00  -0.00    -0.00   0.00  -0.00     0.00  -0.00   0.00
  51   7    -0.24   0.08  -0.06    -0.00  -0.00  -0.00     0.00  -0.00   0.00
  52   1     0.87  -0.34   0.22     0.01  -0.00   0.00    -0.00   0.00  -0.00
  53   1     0.04   0.06   0.01     0.01   0.01   0.00    -0.00  -0.00  -0.00
                    151                    152                    153
                        a                      a                      a 
 Frequencies --  3570.0949              3571.0257              3571.9844
 Red. masses --     2.1826                 2.1818                 1.8776
 Frc consts  --     0.0000                 0.0000                 0.0000
 IR Inten    --    10.1005                13.1610                26.1290
 Raman Activ --     0.0000                 0.0000                 0.0000
 Depolar     --     0.0000                 0.0000                 0.0000
 Atom AN      X      Y      Z        X      Y      Z        X      Y      Z
   1   8    -0.00  -0.00   0.00     0.00   0.01  -0.00     0.11   0.20  -0.07
   2   6    -0.00  -0.00   0.00     0.00   0.00  -0.00     0.00   0.00  -0.00
   3   1    -0.00  -0.00   0.00     0.00  -0.00  -0.00     0.00  -0.00  -0.00
   4   1    -0.00   0.00  -0.00     0.00  -0.00   0.00     0.00  -0.00   0.00
   5   6    -0.00   0.00   0.00     0.00  -0.00  -0.00     0.00  -0.00   0.00
   6   1     0.00  -0.00  -0.00    -0.00   0.00   0.00    -0.00   0.00   0.00
   7   1    -0.00   0.00  -0.00     0.00   0.00   0.00    -0.00   0.00  -0.00
   8   7     0.00   0.00   0.00    -0.00  -0.00   0.00    -0.00  -0.00   0.00
   9   6    -0.00   0.00   0.00    -0.00  -0.00  -0.00     0.00  -0.00  -0.00
  10   1    -0.00   0.00   0.00     0.00   0.00   0.00     0.00   0.00  -0.00
  11   1    -0.00  -0.00   0.00     0.00  -0.00   0.00    -0.00   0.00  -0.00
  12   1     0.00  -0.00  -0.00    -0.00   0.00   0.00    -0.00   0.00   0.00
  13   6     0.00   0.00  -0.00    -0.00  -0.00  -0.00    -0.00  -0.00   0.00
  14   1    -0.00  -0.00  -0.00     0.00   0.00   0.00    -0.00   0.00  -0.00
  15   1    -0.00  -0.00   0.00     0.00   0.00  -0.00     0.00   0.00  -0.00
  16   1     0.00  -0.00   0.00     0.00  -0.00   0.00    -0.00   0.00  -0.00
  17   6    -0.00   0.00   0.00    -0.00  -0.00   0.00    -0.00  -0.00  -0.00
  18   1     0.00  -0.00  -0.00    -0.00  -0.00  -0.00    -0.00   0.00   0.00
  19   1     0.00  -0.00   0.00     0.00  -0.00   0.00     0.00  -0.00  -0.00
  20   1    -0.00  -0.00   0.00     0.00   0.00  -0.00     0.01   0.00  -0.00
  21   1     0.00   0.01  -0.00    -0.01  -0.02   0.01    -0.47  -0.80   0.28
  22   6     0.01   0.01   0.01    -0.00  -0.00  -0.00     0.00   0.00   0.00
  23   8    -0.00  -0.00  -0.00     0.00   0.00   0.00    -0.00  -0.00   0.00
  24   7    -0.00   0.01   0.01     0.00  -0.00  -0.00    -0.00   0.00   0.00
  25   1     0.01  -0.01   0.00    -0.01   0.01  -0.00     0.00  -0.00  -0.00
  26   1     0.00  -0.05  -0.05    -0.00   0.01   0.01     0.00  -0.00  -0.00
  27   7     0.15   0.17   0.20    -0.01  -0.01  -0.01     0.00   0.00   0.00
  28   1     0.04  -0.46  -0.44    -0.00   0.03   0.03     0.00  -0.01  -0.01
  29   1    -0.60  -0.17  -0.32     0.04   0.01   0.02    -0.01  -0.00  -0.00
  30   6     0.00  -0.00  -0.00     0.00  -0.00  -0.00     0.00   0.00  -0.00
  31   8    -0.00   0.00   0.00    -0.00   0.00  -0.00    -0.00  -0.00   0.00
  32   7     0.00  -0.00  -0.00     0.00  -0.00  -0.00     0.00  -0.00  -0.00
  33   1    -0.00   0.00   0.00    -0.00   0.00   0.00    -0.00   0.00   0.00
  34   1    -0.00   0.00   0.00    -0.00   0.00   0.00     0.00  -0.00  -0.00
  35   7    -0.00   0.00  -0.00     0.00   0.00   0.00    -0.00  -0.00  -0.00
  36   1     0.01  -0.00   0.00    -0.00   0.00  -0.00     0.00  -0.00   0.00
  37   1     0.00   0.00   0.00    -0.01  -0.01  -0.00     0.00   0.00   0.00
  38   6     0.00  -0.00   0.00     0.00  -0.00   0.00     0.00   0.00  -0.00
  39   8    -0.00   0.00   0.00    -0.00   0.00  -0.00    -0.00  -0.00   0.00
  40   7     0.00   0.00   0.00     0.00  -0.00  -0.00     0.00  -0.00   0.00
  41   1     0.00  -0.00  -0.00    -0.00   0.00   0.00     0.00  -0.00  -0.00
  42   1    -0.00   0.00  -0.00    -0.00   0.00  -0.00    -0.00   0.00  -0.00
  43   7     0.00  -0.00   0.00     0.00  -0.00   0.00     0.00  -0.00   0.00
  44   1    -0.00   0.00  -0.00    -0.00   0.00  -0.00    -0.00   0.00  -0.00
  45   1    -0.00   0.00  -0.00    -0.00   0.00  -0.00    -0.00   0.00  -0.00
  46   6     0.00  -0.00   0.00     0.01  -0.01   0.00    -0.00   0.00  -0.00
  47   8     0.00   0.00  -0.00    -0.00   0.00  -0.00     0.00  -0.00   0.00
  48   7     0.01  -0.02   0.00     0.18  -0.24   0.02    -0.01   0.01  -0.00
  49   1    -0.01   0.05   0.01    -0.13   0.69   0.11     0.00  -0.02  -0.00
  50   1    -0.04   0.02  -0.01    -0.57   0.21  -0.18     0.02  -0.01   0.01
  51   7     0.00  -0.00   0.00     0.02  -0.00   0.00    -0.00   0.00  -0.00
  52   1    -0.00   0.00  -0.00    -0.06   0.03  -0.02     0.00  -0.00   0.00
  53   1     0.00   0.00   0.00    -0.00  -0.01  -0.00     0.00   0.00   0.00
