 Entering Gaussian System
 *********************************************
 Gaussian 98:
 frequency output generated by the xtb code
 *********************************************
                         Standard orientation:
 --------------------------------------------------------------------
  Center     Atomic     Atomic              Coordinates (Angstroms)
  Number     Number      Type              X           Y           Z
 --------------------------------------------------------------------
    1          8             0       -2.058545   -3.590865    0.065918
    2          6             0       -2.948730   -2.940689   -0.787100
    3          1             0       -3.565814   -3.714869   -1.252944
    4          1             0       -3.620039   -2.276169   -0.227998
    5          6             0       -2.272235   -2.066744   -1.861350
    6          1             0       -1.768703   -1.217050   -1.394174
    7          1             0       -3.056773   -1.692606   -2.521166
    8          7             0       -1.245696   -2.757058   -2.695651
    9          6             0        0.008651   -2.876087   -1.928913
   10          1             0        0.354598   -1.871461   -1.682028
   11          1             0        0.762138   -3.384630   -2.526305
   12          1             0       -0.177456   -3.437760   -1.016179
   13          6             0       -0.983749   -1.922200   -3.881220
   14          1             0       -0.673706   -0.931696   -3.543911
   15          1             0       -1.878664   -1.839871   -4.494522
   16          1             0       -0.186436   -2.362215   -4.476701
   17          6             0       -1.695139   -4.092761   -3.115798
   18          1             0       -2.659244   -4.026023   -3.617101
   19          1             0       -1.781773   -4.743461   -2.248119
   20          1             0       -0.970557   -4.523459   -3.804689
   21          1             0       -1.683059   -2.911738    0.684187
   22          6             0        2.904995    3.916614    1.097989
   23          8             0        2.221628    3.757849    0.080807
   24          7             0        2.728655    3.153238    2.188975
   25          1             0        1.942017    2.499239    2.204222
   26          1             0        3.223259    3.337371    3.042186
   27          7             0        3.873942    4.857638    1.148932
   28          1             0        4.460959    4.982953    1.952562
   29          1             0        4.051074    5.411684    0.330577
   30          6             0        0.655631    1.157587   -1.619539
   31          8             0       -0.058031    0.210916   -1.954189
   32          7             0        0.491975    2.401072   -2.131040
   33          1             0       -0.083352    2.530528   -2.943575
   34          1             0        1.133609    3.129983   -1.865968
   35          7             0        1.667304    1.042440   -0.733364
   36          1             0        2.059710    1.902868   -0.365476
   37          1             0        1.682376    0.240252   -0.126840
   38          6             0       -0.450735    1.826501    1.284349
   39          8             0        0.508571    1.438049    1.967499
   40          7             0       -0.473419    3.067721    0.751849
   41          1             0        0.421399    3.532526    0.623911
   42          1             0       -1.197529    3.311228    0.098993
   43          7             0       -1.533380    1.052008    1.098725
   44          1             0       -2.270622    1.345892    0.484598
   45          1             0       -1.475154    0.067127    1.354501
   46          6             0       -0.407866   -1.940949    2.623006
   47          8             0       -1.076212   -1.677070    1.611563
   48          7             0        0.353692   -1.021318    3.218165
   49          1             0        0.418650   -0.080823    2.807651
   50          1             0        0.890988   -1.236050    4.037785
   51          7             0       -0.406520   -3.193070    3.138613
   52          1             0        0.042848   -3.402128    4.011358
   53          1             0       -1.042165   -3.873238    2.759050
 --------------------------------------------------------------------
     1 basis functions        1 primitive gaussians
     1 alpha electrons        1 beta electrons

 Harmonic frequencies (cm**-1), IR intensities (km*mol⁻¹),
 Raman scattering activities (A**4/amu), Raman depolarization ratios,
 reduced masses (AMU), force constants (mDyne/A) and normal coordinates:
                      1                      2                      3
                        a                      a                      a 
 Frequencies --    15.0661                18.6071                22.4066
 Red. masses --    12.0122                11.8822                12.3935
 Frc consts  --     0.0000                 0.0000                 0.0000
 IR Inten    --     1.1790                 1.2401                 3.4708
 Raman Activ --     0.0000                 0.0000                 0.0000
 Depolar     --     0.0000                 0.0000                 0.0000
 Atom AN      X      Y      Z        X      Y      Z        X      Y      Z
   1   8     0.32  -0.04  -0.00     0.15  -0.05  -0.01     0.19  -0.07  -0.05
   2   6     0.16  -0.11   0.07     0.08  -0.17  -0.05     0.11  -0.00   0.07
   3   1     0.05  -0.04   0.04     0.05  -0.07  -0.01     0.02   0.01   0.02
   4   1     0.05  -0.04   0.04    -0.00  -0.07  -0.03     0.05  -0.01   0.05
   5   6    -0.00  -0.06   0.01     0.01  -0.12  -0.06     0.03   0.05   0.06
   6   1     0.01  -0.02  -0.00    -0.03  -0.01  -0.02     0.02   0.01   0.02
   7   1    -0.03  -0.02   0.03    -0.00  -0.07  -0.03    -0.01   0.02   0.04
   8   7    -0.08   0.01  -0.14     0.12  -0.03  -0.01    -0.03   0.10  -0.05
   9   6     0.00  -0.03  -0.26     0.11   0.13   0.03     0.03   0.07  -0.15
  10   1     0.01  -0.01  -0.07    -0.01   0.05   0.01     0.02   0.02  -0.05
  11   1    -0.02   0.00  -0.11     0.05   0.06   0.02    -0.01   0.02  -0.06
  12   1     0.03  -0.03  -0.08     0.04   0.04   0.01     0.03   0.02  -0.04
  13   6    -0.20   0.09  -0.10     0.06  -0.02  -0.02    -0.13   0.13  -0.04
  14   1    -0.05   0.02  -0.02    -0.02   0.01  -0.01    -0.03   0.03  -0.01
  15   1    -0.08   0.04  -0.00     0.02  -0.04  -0.01    -0.05   0.04   0.01
  16   1    -0.07   0.04  -0.06     0.04   0.02   0.00    -0.05   0.04  -0.03
  17   6    -0.11   0.03  -0.18     0.28  -0.09   0.01    -0.06   0.10  -0.05
  18   1    -0.05   0.02  -0.02     0.08  -0.06  -0.01    -0.03   0.03   0.01
  19   1     0.00  -0.01  -0.06     0.09  -0.02   0.01     0.01   0.02  -0.02
  20   1    -0.05   0.03  -0.08     0.10  -0.01   0.01    -0.03   0.04  -0.03
  21   1     0.08   0.00  -0.01     0.02   0.00  -0.01     0.04  -0.03   0.01
  22   6     0.01  -0.06   0.01     0.12  -0.12  -0.06    -0.03   0.02  -0.01
  23   8     0.03  -0.16   0.01     0.02  -0.02  -0.01    -0.01   0.06  -0.03
  24   7    -0.09   0.10   0.10     0.16  -0.16  -0.08     0.01  -0.07  -0.07
  25   1    -0.03   0.04   0.04     0.03  -0.03  -0.01     0.01  -0.03  -0.03
  26   1    -0.02   0.04   0.02     0.07  -0.07  -0.03    -0.00  -0.03  -0.01
  27   7     0.09  -0.14  -0.09     0.22  -0.22  -0.11    -0.09   0.08   0.07
  28   1     0.02  -0.02  -0.02     0.08  -0.08  -0.04    -0.03   0.01   0.02
  29   1     0.04  -0.07  -0.04     0.05  -0.05  -0.03    -0.03   0.04   0.03
  30   6    -0.01  -0.10   0.06    -0.22   0.11  -0.02     0.05   0.08  -0.11
  31   8    -0.06  -0.04  -0.03    -0.27   0.14  -0.03     0.04   0.08  -0.09
  32   7     0.18  -0.09   0.05    -0.27   0.14   0.05     0.02   0.08  -0.12
  33   1     0.08  -0.01  -0.00    -0.08   0.05   0.02    -0.01   0.02  -0.02
  34   1     0.05  -0.04   0.04    -0.06   0.03   0.01     0.00   0.02  -0.04
  35   7    -0.14  -0.20   0.20    -0.18   0.07  -0.09     0.10   0.09  -0.17
  36   1    -0.02  -0.07   0.06    -0.04   0.01  -0.02     0.03   0.02  -0.05
  37   1    -0.08  -0.06   0.05    -0.04   0.01  -0.03     0.04   0.02  -0.05
  38   6    -0.07   0.09   0.03     0.01   0.05   0.08     0.06  -0.15  -0.08
  39   8    -0.15   0.18   0.18     0.03   0.01   0.04     0.09  -0.17  -0.12
  40   7    -0.05   0.06  -0.04     0.03   0.09   0.15     0.04  -0.16  -0.08
  41   1    -0.01   0.02   0.00     0.01   0.02   0.04     0.01  -0.04  -0.02
  42   1     0.00  -0.00  -0.04     0.00   0.03   0.05     0.01  -0.04  -0.02
  43   7    -0.03   0.04  -0.04    -0.01   0.09   0.08     0.08  -0.18  -0.08
  44   1     0.01  -0.01  -0.05    -0.00   0.03   0.03     0.01  -0.05  -0.01
  45   1     0.00   0.01  -0.01    -0.00   0.02   0.01     0.02  -0.05  -0.01
  46   6     0.05   0.10   0.04    -0.11   0.04   0.02    -0.11  -0.04   0.24
  47   8     0.18   0.07  -0.05    -0.04   0.06  -0.03    -0.02  -0.14   0.18
  48   7    -0.10   0.16   0.16    -0.14   0.03   0.08    -0.13   0.00   0.21
  49   1    -0.03   0.05   0.05    -0.02   0.01   0.02    -0.01  -0.02   0.02
  50   1    -0.05   0.05   0.06    -0.06   0.01   0.03    -0.05   0.02   0.07
  51   7     0.07   0.10   0.03    -0.20   0.05   0.04    -0.23   0.03   0.43
  52   1    -0.00   0.03   0.02    -0.07   0.01   0.02    -0.08   0.03   0.13
  53   1     0.05   0.01  -0.02    -0.05   0.02  -0.00    -0.05  -0.00   0.12
                      4                      5                      6
                        a                      a                      a 
 Frequencies --    35.4028                38.9261                41.0115
 Red. masses --    11.9932                12.4433                11.9581
 Frc consts  --     0.0000                 0.0000                 0.0000
 IR Inten    --     0.9549                 1.5330                 1.9445
 Raman Activ --     0.0000                 0.0000                 0.0000
 Depolar     --     0.0000                 0.0000                 0.0000
 Atom AN      X      Y      Z        X      Y      Z        X      Y      Z
   1   8    -0.03  -0.12   0.07     0.02   0.05  -0.03     0.06  -0.24   0.07
   2   6    -0.06  -0.11   0.10     0.01  -0.01  -0.06    -0.01  -0.34   0.04
   3   1    -0.01  -0.03   0.02     0.02  -0.01  -0.02     0.04  -0.12  -0.00
   4   1    -0.03  -0.05   0.04    -0.02  -0.02  -0.02    -0.04  -0.13   0.01
   5   6    -0.10  -0.03   0.13    -0.01   0.04  -0.03    -0.10  -0.18   0.11
   6   1    -0.05   0.00   0.05    -0.02   0.02  -0.00    -0.05  -0.06   0.06
   7   1    -0.03  -0.02   0.03    -0.00  -0.00  -0.02    -0.04  -0.05   0.05
   8   7    -0.02   0.07   0.16     0.07   0.11  -0.00    -0.06  -0.01   0.03
   9   6    -0.01   0.23   0.15     0.04   0.17   0.05    -0.06  -0.05   0.02
  10   1    -0.03   0.08   0.04    -0.01   0.05   0.02    -0.03  -0.02   0.05
  11   1     0.01   0.09   0.05     0.03   0.06   0.02    -0.01   0.02  -0.01
  12   1     0.02   0.07   0.05     0.01   0.04   0.01    -0.01  -0.05  -0.02
  13   6    -0.12   0.06   0.13     0.06   0.14   0.02    -0.10   0.18   0.14
  14   1    -0.06   0.03   0.03    -0.00   0.04   0.01    -0.04   0.04   0.08
  15   1    -0.04  -0.01   0.04     0.02   0.03  -0.00    -0.03   0.07   0.05
  16   1    -0.02   0.04   0.04     0.03   0.06   0.01    -0.03   0.09   0.02
  17   6     0.13   0.00   0.19     0.16   0.09  -0.04     0.02   0.03  -0.17
  18   1     0.04  -0.04   0.05     0.05   0.01  -0.02     0.00   0.01  -0.04
  19   1     0.06   0.01   0.06     0.05   0.02  -0.01     0.02  -0.03  -0.08
  20   1     0.06   0.02   0.06     0.06   0.04  -0.01     0.01   0.05  -0.07
  21   1     0.00  -0.03   0.01    -0.02   0.01   0.01     0.01  -0.03  -0.00
  22   6     0.01  -0.07   0.10    -0.05  -0.02  -0.16     0.04   0.10  -0.02
  23   8     0.11  -0.09   0.05    -0.07  -0.06  -0.17     0.11   0.08  -0.05
  24   7    -0.15   0.00   0.13    -0.00  -0.03  -0.17     0.10   0.03  -0.06
  25   1    -0.04   0.00   0.02     0.00  -0.01  -0.04     0.03   0.00  -0.02
  26   1    -0.05  -0.00   0.04    -0.00   0.01  -0.05     0.00   0.03  -0.01
  27   7     0.07  -0.13   0.15    -0.10   0.03  -0.20    -0.09   0.25   0.07
  28   1    -0.01  -0.03   0.06    -0.02   0.01  -0.06    -0.02   0.05   0.01
  29   1     0.04  -0.04   0.04    -0.04   0.00  -0.06    -0.02   0.06   0.02
  30   6    -0.01   0.12  -0.07     0.05  -0.02   0.06     0.05  -0.03   0.14
  31   8    -0.20   0.25  -0.03    -0.18   0.14   0.11    -0.02  -0.04   0.33
  32   7     0.23   0.12  -0.16     0.43  -0.04  -0.04     0.02  -0.07   0.08
  33   1     0.05   0.05  -0.04     0.08   0.04   0.02    -0.03  -0.03   0.04
  34   1     0.08   0.01  -0.04     0.12  -0.03   0.03     0.01  -0.01  -0.01
  35   7    -0.04  -0.01  -0.06     0.02  -0.24   0.10     0.17   0.00   0.02
  36   1     0.02  -0.01  -0.02     0.04  -0.08   0.03     0.05   0.01  -0.01
  37   1    -0.05   0.01  -0.01    -0.07  -0.05   0.05     0.06   0.01   0.02
  38   6    -0.03  -0.05  -0.16    -0.07  -0.04   0.07     0.09   0.05  -0.04
  39   8    -0.11  -0.00  -0.06    -0.00  -0.08  -0.04     0.11   0.00  -0.09
  40   7     0.00  -0.07  -0.22    -0.03  -0.09  -0.03     0.11   0.07  -0.01
  41   1     0.00  -0.01  -0.03    -0.00  -0.04  -0.04     0.03   0.01  -0.01
  42   1     0.02  -0.03  -0.08    -0.03  -0.01   0.02     0.03   0.03   0.01
  43   7     0.01  -0.08  -0.27    -0.18   0.05   0.31     0.06   0.10  -0.03
  44   1     0.02  -0.04  -0.10    -0.06   0.02   0.11     0.02   0.03  -0.01
  45   1     0.00  -0.02  -0.06    -0.06   0.01   0.09     0.01   0.02  -0.03
  46   6     0.07  -0.03  -0.08    -0.05  -0.04   0.06    -0.11   0.02  -0.13
  47   8     0.11  -0.06  -0.12    -0.23   0.01   0.20    -0.07   0.03  -0.19
  48   7    -0.00   0.01  -0.05     0.06  -0.08  -0.02    -0.08  -0.01  -0.14
  49   1    -0.01   0.00  -0.01     0.01  -0.02   0.00    -0.00  -0.00  -0.04
  50   1    -0.00   0.01  -0.01     0.05  -0.04  -0.03    -0.04  -0.01  -0.03
  51   7     0.13  -0.03  -0.10     0.03  -0.07  -0.01    -0.21   0.03  -0.11
  52   1     0.03  -0.00  -0.02     0.04  -0.03  -0.02    -0.06   0.00  -0.03
  53   1     0.05  -0.02  -0.03    -0.01  -0.01   0.02    -0.05   0.01  -0.04
                      7                      8                      9
                        a                      a                      a 
 Frequencies --    47.0752                51.5712                54.4401
 Red. masses --    12.8088                13.0687                12.4602
 Frc consts  --     0.0000                 0.0000                 0.0000
 IR Inten    --     1.9574                 1.3999                 0.6657
 Raman Activ --     0.0000                 0.0000                 0.0000
 Depolar     --     0.0000                 0.0000                 0.0000
 Atom AN      X      Y      Z        X      Y      Z        X      Y      Z
   1   8    -0.18  -0.04  -0.10    -0.07   0.05  -0.02     0.06   0.05   0.01
   2   6    -0.09   0.07  -0.08    -0.04   0.08  -0.01    -0.00  -0.07  -0.02
   3   1    -0.04   0.04  -0.04    -0.03   0.03   0.01     0.01  -0.04   0.01
   4   1    -0.02   0.03  -0.02     0.00   0.04  -0.00    -0.01  -0.02  -0.02
   5   6    -0.00   0.06  -0.03    -0.02   0.02  -0.04    -0.07  -0.09  -0.09
   6   1    -0.00   0.01   0.00    -0.01   0.01  -0.02    -0.03  -0.01  -0.04
   7   1     0.01   0.03  -0.02    -0.00  -0.00  -0.02    -0.03  -0.05  -0.03
   8   7     0.03   0.05   0.02    -0.01  -0.03   0.01    -0.05  -0.09  -0.07
   9   6    -0.00   0.04   0.07    -0.00   0.06   0.02    -0.03   0.04  -0.07
  10   1    -0.01   0.01   0.03    -0.01   0.02  -0.01    -0.02   0.02  -0.04
  11   1     0.01   0.02   0.03     0.00   0.01   0.01    -0.00   0.01  -0.01
  12   1    -0.01   0.01   0.02     0.01   0.03   0.01     0.00   0.03  -0.01
  13   6     0.08   0.03   0.02    -0.03  -0.11  -0.05    -0.11  -0.13  -0.11
  14   1     0.02   0.01   0.01    -0.01  -0.02  -0.04    -0.05  -0.03  -0.05
  15   1     0.03   0.01  -0.01    -0.01  -0.05  -0.02    -0.04  -0.06  -0.03
  16   1     0.03   0.01   0.02    -0.00  -0.04  -0.00    -0.03  -0.04  -0.03
  17   6     0.03   0.04   0.02     0.01  -0.07   0.12     0.03  -0.13   0.03
  18   1     0.02   0.01  -0.01     0.00  -0.03   0.03     0.01  -0.06   0.01
  19   1    -0.01   0.02   0.01     0.00   0.00   0.05     0.03  -0.02   0.02
  20   1     0.02   0.01   0.02     0.01  -0.03   0.05     0.01  -0.04   0.01
  21   1    -0.01  -0.02  -0.03     0.02   0.01  -0.02    -0.01   0.02   0.00
  22   6    -0.03   0.10  -0.10    -0.01  -0.02  -0.01     0.02   0.08   0.11
  23   8    -0.05  -0.03  -0.09     0.02  -0.10  -0.01     0.25  -0.19   0.02
  24   7    -0.16   0.38   0.06     0.31  -0.29  -0.13    -0.14   0.33   0.25
  25   1    -0.02   0.08   0.03     0.07  -0.07  -0.02    -0.01   0.05   0.05
  26   1    -0.01   0.10  -0.00     0.02  -0.02  -0.01    -0.07   0.13   0.08
  27   7     0.10  -0.03  -0.32    -0.38   0.36   0.15    -0.08   0.20   0.11
  28   1    -0.01   0.06  -0.07    -0.03   0.03  -0.00    -0.06   0.11   0.05
  29   1     0.02  -0.03  -0.10    -0.09   0.08   0.03     0.01   0.01   0.01
  30   6    -0.03  -0.00   0.09    -0.03  -0.03  -0.02    -0.06  -0.01  -0.14
  31   8    -0.10   0.05   0.07    -0.10   0.06  -0.15    -0.09   0.03  -0.22
  32   7     0.03   0.03   0.17     0.14   0.01   0.03     0.00   0.02  -0.13
  33   1    -0.00   0.03   0.05     0.06   0.03  -0.00     0.02   0.01  -0.05
  34   1     0.01  -0.00   0.06     0.05  -0.02   0.04     0.02  -0.01  -0.04
  35   7    -0.02  -0.10   0.07    -0.13  -0.18   0.07    -0.11  -0.06  -0.11
  36   1     0.01  -0.04   0.02    -0.01  -0.07   0.03    -0.01  -0.03  -0.02
  37   1    -0.01  -0.03   0.01    -0.07  -0.06   0.01    -0.04  -0.02  -0.04
  38   6     0.09  -0.07   0.04     0.04   0.01   0.05     0.13   0.02   0.09
  39   8     0.09  -0.01   0.11     0.03   0.02   0.07     0.16  -0.03   0.06
  40   7    -0.00  -0.04   0.12     0.03   0.02   0.07     0.21  -0.00   0.04
  41   1    -0.01   0.00   0.04     0.01   0.01   0.02     0.07  -0.02  -0.01
  42   1     0.00  -0.03   0.02     0.01   0.00   0.01     0.05   0.01   0.02
  43   7     0.19  -0.17  -0.09     0.05   0.00   0.02     0.07   0.11   0.19
  44   1     0.06  -0.06  -0.04     0.03  -0.00  -0.01     0.02   0.04   0.06
  45   1     0.07  -0.05  -0.05     0.03  -0.00  -0.02    -0.00   0.03   0.05
  46   6     0.02  -0.09  -0.02     0.05   0.03  -0.05    -0.04  -0.01   0.02
  47   8     0.28  -0.16  -0.22     0.33   0.01  -0.24    -0.17   0.07   0.12
  48   7     0.03  -0.11  -0.01    -0.10   0.04   0.12     0.14  -0.11  -0.08
  49   1     0.03  -0.03  -0.01    -0.00   0.01   0.03     0.04  -0.02  -0.01
  50   1    -0.07  -0.01   0.05    -0.08   0.02   0.07     0.05  -0.04  -0.04
  51   7    -0.27  -0.01   0.17    -0.08   0.04  -0.02    -0.12  -0.02   0.01
  52   1    -0.11   0.01   0.07    -0.07   0.01   0.02    -0.00  -0.02  -0.02
  53   1    -0.06  -0.00   0.02     0.01   0.01  -0.05    -0.06   0.01   0.02
                     10                     11                     12
                        a                      a                      a 
 Frequencies --    60.3482                66.0267                75.2590
 Red. masses --    12.7335                13.1952                12.6010
 Frc consts  --     0.0000                 0.0000                 0.0000
 IR Inten    --     0.2800                 6.1868                 1.5835
 Raman Activ --     0.0000                 0.0000                 0.0000
 Depolar     --     0.0000                 0.0000                 0.0000
 Atom AN      X      Y      Z        X      Y      Z        X      Y      Z
   1   8    -0.07  -0.02  -0.01    -0.06   0.12  -0.05    -0.02   0.07   0.04
   2   6    -0.04   0.01  -0.01    -0.02   0.07  -0.10     0.03   0.06  -0.01
   3   1    -0.01   0.01  -0.01     0.00   0.01  -0.03     0.01   0.02  -0.00
   4   1    -0.01   0.00  -0.00    -0.02   0.02  -0.05     0.00   0.02  -0.01
   5   6    -0.01   0.01   0.01     0.00   0.04  -0.11     0.07   0.04  -0.01
   6   1    -0.00  -0.00   0.01    -0.01   0.02  -0.04     0.03   0.00   0.00
   7   1     0.00   0.01  -0.00     0.01   0.00  -0.04     0.02   0.02  -0.00
   8   7    -0.01  -0.00   0.02     0.05   0.04  -0.06     0.05   0.01  -0.01
   9   6    -0.02  -0.02   0.03    -0.02  -0.03   0.03    -0.00  -0.15   0.04
  10   1    -0.00  -0.01   0.02    -0.01  -0.01   0.03     0.01  -0.06   0.05
  11   1    -0.00  -0.01   0.01     0.01  -0.00   0.02    -0.00  -0.04   0.01
  12   1    -0.01  -0.01   0.01    -0.03  -0.02  -0.00    -0.02  -0.07  -0.01
  13   6     0.02   0.00   0.03     0.15   0.06  -0.01     0.17   0.08   0.06
  14   1     0.01  -0.00   0.01     0.03   0.02   0.01     0.05   0.01   0.05
  15   1     0.01   0.01   0.00     0.06   0.02  -0.03     0.06   0.05   0.00
  16   1     0.01  -0.00   0.01     0.06   0.02   0.01     0.05   0.02   0.02
  17   6    -0.02   0.01   0.00     0.03   0.06  -0.13    -0.05   0.08  -0.14
  18   1    -0.00   0.01  -0.00     0.02   0.03  -0.05    -0.01   0.06  -0.05
  19   1    -0.01   0.00  -0.00    -0.01   0.01  -0.05    -0.04   0.00  -0.06
  20   1    -0.00   0.00   0.00     0.02   0.02  -0.03    -0.02   0.02  -0.04
  21   1    -0.00  -0.00  -0.01    -0.03   0.03   0.00     0.02   0.03  -0.01
  22   6     0.01   0.07  -0.05     0.05  -0.05  -0.01    -0.00  -0.04   0.05
  23   8     0.05   0.04  -0.07     0.23  -0.23  -0.10     0.07  -0.04   0.01
  24   7    -0.07   0.17  -0.00     0.03  -0.01   0.01    -0.08  -0.04   0.05
  25   1    -0.00   0.03  -0.00     0.01  -0.01  -0.00    -0.02  -0.01  -0.00
  26   1    -0.01   0.04  -0.01    -0.05   0.05   0.02    -0.03  -0.02   0.02
  27   7     0.06   0.03  -0.08    -0.13   0.13   0.08     0.01  -0.06   0.12
  28   1    -0.01   0.04  -0.01    -0.04   0.04   0.02    -0.02  -0.01   0.05
  29   1     0.01   0.01  -0.02     0.00  -0.00   0.00     0.01  -0.01   0.04
  30   6     0.02   0.02  -0.06    -0.18  -0.05   0.12    -0.12  -0.01  -0.04
  31   8     0.03  -0.01   0.02    -0.31  -0.02   0.26    -0.24  -0.04   0.24
  32   7    -0.01  -0.01  -0.14    -0.23  -0.05   0.16    -0.05  -0.14  -0.37
  33   1    -0.01  -0.02  -0.03    -0.09  -0.01   0.06    -0.04  -0.07  -0.09
  34   1    -0.00   0.00  -0.06    -0.03  -0.02   0.01    -0.00  -0.03  -0.15
  35   7     0.06   0.10  -0.09    -0.05  -0.10  -0.04    -0.10   0.13  -0.06
  36   1     0.01   0.03  -0.04     0.01  -0.03  -0.02    -0.02   0.05  -0.06
  37   1     0.02   0.04  -0.01     0.00  -0.03  -0.01    -0.04   0.07   0.03
  38   6     0.07  -0.05   0.08     0.06  -0.02  -0.12    -0.04  -0.03   0.02
  39   8     0.09  -0.10   0.06     0.00   0.03  -0.00    -0.01  -0.02  -0.02
  40   7     0.13  -0.09   0.01     0.07  -0.01  -0.12     0.05  -0.12  -0.18
  41   1     0.04  -0.03  -0.01     0.02  -0.00  -0.02     0.02  -0.04  -0.06
  42   1     0.03  -0.02   0.01     0.04  -0.02  -0.07    -0.00  -0.02  -0.03
  43   7    -0.00   0.02   0.20     0.15  -0.09  -0.29    -0.17   0.07   0.30
  44   1     0.00   0.01   0.05     0.05  -0.03  -0.09    -0.03  -0.00   0.05
  45   1    -0.00   0.00   0.04     0.03  -0.01  -0.04    -0.02   0.01   0.05
  46   6    -0.06  -0.05   0.01     0.03   0.03   0.12     0.11   0.03  -0.02
  47   8     0.05  -0.03  -0.07    -0.12  -0.01   0.23     0.34   0.05  -0.16
  48   7    -0.55   0.08   0.42    -0.03   0.10   0.11     0.16  -0.02   0.00
  49   1    -0.10   0.01   0.10    -0.02   0.02   0.02     0.05  -0.00   0.00
  50   1    -0.11  -0.01   0.08     0.04   0.02  -0.00    -0.02   0.01   0.04
  51   7     0.25  -0.18  -0.29     0.27  -0.01   0.06    -0.15   0.09   0.10
  52   1     0.00  -0.05  -0.04     0.08   0.01   0.01    -0.06   0.02   0.04
  53   1     0.11  -0.06  -0.12     0.06  -0.01   0.04    -0.03   0.03  -0.00
                     13                     14                     15
                        a                      a                      a 
 Frequencies --    80.5601                93.2406               107.2625
 Red. masses --    12.4298                11.5229                12.8711
 Frc consts  --     0.0000                 0.0000                 0.0000
 IR Inten    --    10.1341                 4.6418                 3.2561
 Raman Activ --     0.0000                 0.0000                 0.0000
 Depolar     --     0.0000                 0.0000                 0.0000
 Atom AN      X      Y      Z        X      Y      Z        X      Y      Z
   1   8    -0.13  -0.05  -0.03     0.19  -0.08  -0.02    -0.05   0.01  -0.06
   2   6    -0.09  -0.12  -0.09     0.17   0.17   0.16    -0.07  -0.04  -0.06
   3   1    -0.00  -0.05  -0.03    -0.00   0.10   0.04    -0.01  -0.02  -0.02
   4   1    -0.05  -0.04  -0.04     0.10   0.07   0.09    -0.03  -0.02  -0.02
   5   6    -0.09  -0.09  -0.07     0.24   0.18   0.20    -0.11  -0.01  -0.06
   6   1    -0.04  -0.02  -0.02     0.11   0.02   0.07    -0.05   0.01  -0.02
   7   1    -0.02  -0.04  -0.03     0.07   0.10   0.08    -0.04  -0.02  -0.03
   8   7    -0.03  -0.04  -0.04     0.09   0.09   0.11    -0.04   0.05  -0.02
   9   6    -0.08  -0.05   0.03     0.17  -0.02  -0.05    -0.02   0.22  -0.01
  10   1    -0.03  -0.02   0.02     0.08  -0.01  -0.03    -0.04   0.08  -0.02
  11   1    -0.01  -0.01   0.02     0.02  -0.02  -0.04     0.01   0.08   0.00
  12   1    -0.04  -0.02   0.00     0.06  -0.00  -0.01     0.01   0.07   0.00
  13   6     0.03   0.02   0.01     0.02   0.03   0.05    -0.12   0.01  -0.07
  14   1     0.00   0.00   0.02     0.02   0.01  -0.00    -0.05   0.01  -0.03
  15   1     0.02   0.01  -0.01    -0.01   0.01   0.04    -0.04  -0.02  -0.01
  16   1     0.02   0.01   0.01    -0.02  -0.01  -0.00    -0.03   0.01  -0.02
  17   6     0.01  -0.03  -0.13    -0.08   0.11   0.18     0.12  -0.03   0.06
  18   1     0.01  -0.00  -0.05    -0.04   0.05   0.08     0.04  -0.05   0.01
  19   1    -0.01  -0.02  -0.05    -0.01   0.04   0.06     0.05   0.01   0.03
  20   1     0.02   0.01  -0.03    -0.05   0.01   0.03     0.06   0.00   0.03
  21   1    -0.05  -0.01   0.00     0.06  -0.04   0.02    -0.01   0.01  -0.02
  22   6     0.06   0.09  -0.01     0.03  -0.02  -0.08     0.08  -0.01  -0.07
  23   8    -0.06   0.20   0.07     0.13  -0.12  -0.15     0.21  -0.06  -0.15
  24   7     0.22  -0.02  -0.06     0.02   0.00  -0.07     0.04  -0.03  -0.09
  25   1     0.04   0.02   0.01     0.00   0.01  -0.01    -0.01   0.02  -0.02
  26   1     0.07  -0.01  -0.02    -0.03   0.04  -0.01    -0.03   0.03  -0.01
  27   7     0.07   0.09  -0.04    -0.07   0.08  -0.04     0.02   0.06   0.02
  28   1     0.05  -0.00  -0.03    -0.01   0.02  -0.01     0.01  -0.00   0.01
  29   1    -0.00   0.04  -0.01     0.01  -0.01  -0.03     0.04  -0.01  -0.00
  30   6    -0.02   0.05  -0.05    -0.08  -0.01   0.01     0.08  -0.00   0.06
  31   8     0.01   0.02  -0.01    -0.04  -0.06   0.04     0.26  -0.11   0.02
  32   7     0.17  -0.05  -0.37    -0.09  -0.05  -0.10    -0.21   0.02   0.18
  33   1     0.09  -0.05  -0.13     0.00  -0.04  -0.05    -0.03  -0.03   0.02
  34   1     0.03  -0.00  -0.09    -0.02  -0.01  -0.05    -0.05   0.01   0.01
  35   7    -0.24   0.21   0.22    -0.15   0.08   0.09     0.12   0.14   0.03
  36   1    -0.07   0.07   0.03    -0.03   0.03   0.00     0.02   0.05  -0.00
  37   1    -0.10   0.08   0.09    -0.04   0.03   0.03     0.10   0.02  -0.02
  38   6     0.04   0.02   0.09    -0.01   0.02   0.03    -0.10  -0.02   0.06
  39   8    -0.06   0.18   0.34    -0.12   0.04   0.22    -0.22   0.18   0.32
  40   7     0.00  -0.00   0.03     0.06   0.01  -0.01    -0.00  -0.20  -0.35
  41   1    -0.01   0.03   0.04     0.02   0.00   0.01    -0.00  -0.04  -0.07
  42   1     0.03  -0.04  -0.03     0.04  -0.01  -0.04     0.03  -0.10  -0.14
  43   7     0.19  -0.11  -0.14     0.03   0.01  -0.14    -0.14  -0.02   0.21
  44   1     0.07  -0.05  -0.07     0.03   0.00  -0.07     0.01  -0.06  -0.02
  45   1     0.04  -0.02  -0.01    -0.01   0.01  -0.02    -0.02  -0.00   0.07
  46   6    -0.02  -0.06   0.07    -0.13  -0.11  -0.09     0.03  -0.04   0.01
  47   8    -0.12  -0.11   0.14    -0.20   0.00  -0.03     0.09  -0.05  -0.02
  48   7     0.04  -0.06  -0.01    -0.02  -0.21  -0.09     0.07  -0.06  -0.01
  49   1    -0.01  -0.00   0.02    -0.02  -0.04   0.01    -0.01  -0.00   0.03
  50   1     0.02  -0.01  -0.00    -0.01  -0.07  -0.03    -0.02  -0.00   0.03
  51   7     0.06  -0.06   0.09    -0.18  -0.16  -0.20    -0.05  -0.02   0.07
  52   1     0.04  -0.01   0.01    -0.03  -0.07  -0.07    -0.01  -0.01   0.01
  53   1     0.01  -0.02   0.04    -0.06  -0.03  -0.06    -0.00  -0.01   0.01
                     16                     17                     18
                        a                      a                      a 
 Frequencies --   110.0084               116.0232               119.0334
 Red. masses --    11.9292                12.4941                12.6142
 Frc consts  --     0.0000                 0.0000                 0.0000
 IR Inten    --     1.5302                 6.4201                28.5572
 Raman Activ --     0.0000                 0.0000                 0.0000
 Depolar     --     0.0000                 0.0000                 0.0000
 Atom AN      X      Y      Z        X      Y      Z        X      Y      Z
   1   8     0.10   0.12  -0.12     0.03  -0.10  -0.09     0.11   0.29   0.21
   2   6     0.01   0.11  -0.02     0.04   0.06   0.02     0.04  -0.02   0.05
   3   1    -0.02   0.03   0.01    -0.03   0.05   0.01     0.05  -0.05   0.05
   4   1     0.02   0.04   0.01     0.05   0.04   0.03    -0.02  -0.01  -0.02
   5   6    -0.07   0.06  -0.11     0.08  -0.01  -0.01    -0.08  -0.09  -0.08
   6   1    -0.03   0.04  -0.05     0.05  -0.01  -0.01    -0.04   0.00  -0.05
   7   1    -0.03  -0.01  -0.04     0.03   0.02   0.00    -0.04  -0.07  -0.03
   8   7    -0.03   0.04  -0.05    -0.01  -0.14  -0.03    -0.04  -0.08  -0.04
   9   6     0.03   0.29  -0.10     0.02  -0.20  -0.08    -0.08  -0.08   0.03
  10   1    -0.03   0.11  -0.06     0.03  -0.06  -0.03    -0.03  -0.02   0.02
  11   1     0.02   0.10  -0.03    -0.01  -0.08  -0.03    -0.01  -0.02   0.02
  12   1     0.05   0.10  -0.02     0.01  -0.05  -0.02    -0.03  -0.03   0.00
  13   6    -0.19  -0.11  -0.18     0.02  -0.19  -0.06     0.03  -0.04  -0.00
  14   1    -0.07  -0.01  -0.09     0.02  -0.05  -0.03     0.01  -0.02   0.01
  15   1    -0.07  -0.08  -0.04     0.00  -0.05  -0.02     0.02  -0.00  -0.01
  16   1    -0.06  -0.03  -0.05    -0.00  -0.07  -0.02     0.01  -0.01   0.01
  17   6     0.11  -0.09   0.21    -0.15  -0.11   0.05    -0.02  -0.06  -0.09
  18   1     0.03  -0.09   0.06    -0.05  -0.01   0.03    -0.00  -0.01  -0.03
  19   1     0.05   0.02   0.10    -0.05  -0.02   0.02    -0.01  -0.03  -0.03
  20   1     0.04  -0.04   0.08    -0.06  -0.06   0.01    -0.00  -0.01  -0.03
  21   1     0.02   0.02  -0.03     0.02  -0.05  -0.01     0.01   0.11   0.02
  22   6    -0.02   0.08   0.04     0.10   0.16   0.02    -0.09   0.03  -0.08
  23   8    -0.11   0.25   0.08     0.07   0.34   0.03    -0.03   0.23  -0.18
  24   7    -0.03   0.01  -0.01     0.08   0.07  -0.05    -0.24  -0.07  -0.19
  25   1    -0.00  -0.00  -0.01     0.02   0.03  -0.02    -0.07  -0.02  -0.07
  26   1     0.03  -0.05  -0.01     0.03  -0.02  -0.01    -0.06  -0.06  -0.04
  27   7     0.10  -0.04   0.06     0.20   0.07   0.10     0.00  -0.08   0.10
  28   1     0.01  -0.01   0.03     0.05  -0.00   0.04    -0.04  -0.04   0.06
  29   1    -0.00   0.04   0.04     0.05   0.05   0.05     0.01   0.02   0.06
  30   6    -0.04  -0.15   0.14    -0.09   0.11   0.12     0.02   0.06   0.03
  31   8    -0.08  -0.22   0.36    -0.20   0.23   0.04     0.00   0.10  -0.00
  32   7    -0.01  -0.28  -0.13     0.07   0.18   0.23     0.05   0.10   0.10
  33   1    -0.03  -0.11  -0.02     0.03   0.09   0.06     0.01   0.04   0.03
  34   1    -0.02  -0.05  -0.06     0.04   0.02   0.09     0.01   0.02   0.04
  35   7    -0.02   0.00   0.15    -0.13  -0.06   0.16     0.04   0.01   0.02
  36   1    -0.01   0.02   0.00    -0.00  -0.04   0.05     0.03  -0.00  -0.00
  37   1    -0.01   0.04   0.09    -0.06  -0.02   0.04     0.00   0.00   0.00
  38   6     0.07  -0.03  -0.06    -0.00  -0.05  -0.09     0.04  -0.03  -0.01
  39   8     0.11  -0.10  -0.15     0.01  -0.01  -0.09    -0.09  -0.11   0.13
  40   7     0.07   0.00   0.01     0.08  -0.16  -0.32     0.15  -0.01   0.01
  41   1     0.02   0.00  -0.00     0.02  -0.03  -0.07     0.05  -0.01   0.01
  42   1     0.00   0.02   0.03     0.01  -0.04  -0.08     0.06  -0.00  -0.01
  43   7     0.06  -0.01  -0.07    -0.10   0.01   0.13     0.04   0.02  -0.20
  44   1     0.01   0.01  -0.00    -0.01  -0.02   0.01     0.04   0.01  -0.09
  45   1     0.01  -0.00  -0.03    -0.03   0.00   0.03    -0.01   0.01  -0.03
  46   6    -0.00   0.01  -0.01    -0.04  -0.04  -0.02     0.04  -0.03   0.06
  47   8     0.01   0.04  -0.01    -0.07  -0.11  -0.02     0.13   0.25   0.09
  48   7    -0.01  -0.00   0.02    -0.06   0.01  -0.08     0.16  -0.22   0.22
  49   1     0.01  -0.01  -0.00    -0.02   0.00  -0.03     0.04  -0.05   0.09
  50   1     0.00  -0.01   0.00    -0.01   0.01  -0.02     0.02  -0.09   0.06
  51   7    -0.02  -0.00  -0.04     0.03  -0.02   0.03    -0.17  -0.12  -0.16
  52   1    -0.01  -0.01  -0.01     0.01   0.02   0.01    -0.05  -0.10  -0.06
  53   1    -0.01   0.00  -0.02     0.00  -0.01   0.03    -0.05   0.01  -0.10
                     19                     20                     21
                        a                      a                      a 
 Frequencies --   136.4206               141.6093               158.4267
 Red. masses --    13.2027                12.8334                12.5700
 Frc consts  --     0.0000                 0.0000                 0.0000
 IR Inten    --    15.9264                 8.1553                 0.8650
 Raman Activ --     0.0000                 0.0000                 0.0000
 Depolar     --     0.0000                 0.0000                 0.0000
 Atom AN      X      Y      Z        X      Y      Z        X      Y      Z
   1   8    -0.08  -0.04   0.03    -0.00   0.09   0.14    -0.17  -0.22  -0.10
   2   6    -0.04  -0.05  -0.02     0.01  -0.03   0.03    -0.06  -0.04  -0.07
   3   1     0.01  -0.02  -0.02     0.04  -0.03  -0.00    -0.02   0.02  -0.06
   4   1    -0.03  -0.03  -0.02    -0.03  -0.03  -0.01    -0.01  -0.02  -0.01
   5   6    -0.02  -0.00   0.03     0.01   0.02   0.07     0.07   0.04   0.08
   6   1    -0.01  -0.01   0.02    -0.01   0.00   0.03     0.04  -0.02   0.06
   7   1    -0.00   0.01   0.01     0.00   0.01   0.02     0.04   0.06   0.03
   8   7     0.01   0.06   0.02     0.04   0.10   0.05     0.05   0.06   0.02
   9   6    -0.00   0.05   0.04     0.01   0.06   0.08     0.07   0.03  -0.02
  10   1     0.00   0.01   0.01     0.01   0.01   0.02     0.03   0.01  -0.02
  11   1     0.00   0.01   0.01     0.00   0.01   0.03     0.01  -0.00  -0.01
  12   1    -0.00   0.01   0.01    -0.01   0.02   0.02     0.02   0.02  -0.00
  13   6     0.00   0.09   0.04     0.04   0.16   0.09    -0.01   0.06   0.02
  14   1     0.00   0.02   0.02     0.01   0.04   0.04    -0.01   0.02   0.00
  15   1     0.00   0.03   0.01     0.01   0.05   0.02    -0.01   0.01   0.01
  16   1     0.00   0.03   0.01     0.02   0.06   0.02    -0.00   0.02  -0.00
  17   6     0.05   0.06  -0.04     0.07   0.12  -0.06     0.03   0.06   0.01
  18   1     0.02   0.02  -0.02     0.02   0.04  -0.02     0.00   0.02   0.01
  19   1     0.02   0.00  -0.02     0.03   0.01  -0.04     0.02   0.01   0.00
  20   1     0.02   0.03  -0.01     0.02   0.06  -0.03     0.00   0.02  -0.01
  21   1    -0.02  -0.01   0.00    -0.01   0.04   0.02    -0.03  -0.08  -0.01
  22   6     0.10   0.01  -0.09    -0.06   0.03   0.08    -0.14  -0.00  -0.03
  23   8     0.31  -0.00  -0.23    -0.27   0.06   0.21    -0.09   0.23  -0.13
  24   7    -0.12   0.04  -0.11     0.11   0.01   0.09    -0.30  -0.13  -0.16
  25   1    -0.01  -0.01  -0.07     0.03  -0.00   0.04    -0.09  -0.03  -0.06
  26   1    -0.06   0.00  -0.01     0.08  -0.02   0.00    -0.07  -0.08  -0.04
  27   7     0.07   0.04   0.13    -0.01  -0.03  -0.12    -0.03  -0.15   0.20
  28   1    -0.01  -0.01   0.06     0.00   0.03  -0.04    -0.06  -0.06   0.09
  29   1     0.08  -0.00   0.04    -0.08   0.03  -0.02     0.01   0.02   0.10
  30   6    -0.04  -0.02   0.04    -0.07  -0.10  -0.03    -0.04  -0.11  -0.07
  31   8     0.20  -0.11  -0.21     0.08  -0.16  -0.28    -0.05  -0.09  -0.13
  32   7    -0.09  -0.01   0.05    -0.16  -0.06   0.11    -0.03  -0.08   0.02
  33   1     0.11  -0.04  -0.09     0.01  -0.02  -0.01    -0.02  -0.00   0.02
  34   1    -0.01  -0.01   0.02    -0.06  -0.01   0.06    -0.01  -0.02   0.02
  35   7    -0.35   0.10   0.38    -0.23  -0.13   0.13    -0.03  -0.19  -0.08
  36   1    -0.09   0.03   0.09    -0.07  -0.04   0.06     0.01  -0.06  -0.02
  37   1    -0.10   0.03   0.10    -0.06  -0.06   0.00     0.00  -0.06  -0.04
  38   6    -0.05  -0.03  -0.08     0.13  -0.11  -0.09     0.13   0.17   0.07
  39   8     0.06  -0.20  -0.35     0.14  -0.06  -0.03     0.05   0.13   0.19
  40   7    -0.08   0.07   0.13     0.20  -0.23  -0.33     0.29   0.14  -0.02
  41   1    -0.03   0.02   0.02     0.06  -0.06  -0.08     0.09   0.01  -0.03
  42   1    -0.04   0.06   0.07     0.05  -0.08  -0.09     0.08   0.05   0.00
  43   7    -0.10   0.03  -0.02     0.09  -0.07   0.04     0.11   0.23   0.06
  44   1    -0.07   0.04   0.07     0.03  -0.03  -0.00     0.04   0.06  -0.00
  45   1    -0.03   0.01  -0.02     0.01  -0.01   0.03     0.01   0.06   0.03
  46   6     0.04  -0.03   0.04    -0.03   0.08  -0.03     0.02  -0.03   0.01
  47   8     0.09  -0.05   0.02    -0.05   0.17  -0.00     0.00  -0.16  -0.00
  48   7     0.00  -0.01   0.07     0.00   0.03   0.00    -0.00   0.04  -0.05
  49   1     0.02  -0.02  -0.01     0.01   0.01   0.01    -0.01   0.01  -0.01
  50   1     0.01  -0.00   0.01     0.01  -0.01  -0.01    -0.00   0.03  -0.01
  51   7     0.04  -0.02   0.07    -0.06   0.05  -0.13     0.12   0.02   0.15
  52   1     0.00   0.00   0.03    -0.01  -0.01  -0.04     0.03   0.05   0.05
  53   1     0.02  -0.01   0.02    -0.02   0.03  -0.05     0.03  -0.02   0.08
                     22                     23                     24
                        a                      a                      a 
 Frequencies --   165.7169               179.8299               188.3242
 Red. masses --    12.7624                12.6923                10.5857
 Frc consts  --     0.0000                 0.0000                 0.0000
 IR Inten    --     0.4750                 9.7623                10.8353
 Raman Activ --     0.0000                 0.0000                 0.0000
 Depolar     --     0.0000                 0.0000                 0.0000
 Atom AN      X      Y      Z        X      Y      Z        X      Y      Z
   1   8    -0.02   0.02   0.04     0.01  -0.05  -0.07    -0.47   0.02   0.30
   2   6    -0.00  -0.00   0.00    -0.01  -0.00  -0.01    -0.09  -0.08  -0.13
   3   1     0.01  -0.01  -0.00    -0.02   0.01   0.00     0.04  -0.04  -0.10
   4   1    -0.01  -0.01  -0.01     0.01   0.00   0.01    -0.11  -0.03  -0.12
   5   6    -0.00   0.02   0.02    -0.03  -0.02  -0.04     0.26  -0.03   0.15
   6   1    -0.01   0.01   0.01    -0.01   0.00  -0.02     0.13  -0.09   0.12
   7   1    -0.00   0.00   0.01    -0.01  -0.01  -0.01     0.11   0.11   0.07
   8   7     0.02   0.06   0.02    -0.02  -0.03  -0.02     0.11  -0.04  -0.07
   9   6     0.00   0.04   0.04    -0.03  -0.01  -0.01     0.24  -0.04  -0.30
  10   1     0.00   0.01   0.02    -0.01  -0.00   0.00     0.13  -0.01  -0.17
  11   1     0.00   0.01   0.01    -0.00   0.00  -0.00     0.02  -0.08  -0.09
  12   1    -0.01   0.01   0.01    -0.00  -0.01  -0.00     0.09   0.06  -0.04
  13   6     0.02   0.07   0.03    -0.00  -0.04  -0.02    -0.20   0.01  -0.11
  14   1    -0.00   0.02   0.01     0.01  -0.01  -0.01    -0.09   0.02  -0.04
  15   1     0.01   0.02   0.00    -0.00  -0.01  -0.01    -0.09  -0.04   0.01
  16   1     0.01   0.03   0.01    -0.00  -0.02  -0.01    -0.06   0.04  -0.07
  17   6     0.04   0.06  -0.03    -0.02  -0.04   0.01     0.09  -0.05  -0.01
  18   1     0.01   0.02  -0.01    -0.00  -0.01  -0.01    -0.02  -0.03   0.08
  19   1     0.01   0.01  -0.02    -0.01  -0.00   0.01     0.12  -0.03  -0.01
  20   1     0.02   0.03  -0.01    -0.00  -0.02   0.01    -0.02   0.02  -0.07
  21   1    -0.00   0.01   0.01     0.01  -0.02  -0.01    -0.11   0.03   0.04
  22   6     0.13   0.16   0.05    -0.09  -0.11   0.04     0.01  -0.01   0.01
  23   8     0.05   0.21   0.14    -0.19  -0.24   0.11    -0.01  -0.04   0.03
  24   7     0.23   0.13   0.06     0.04  -0.04   0.10     0.04   0.01   0.03
  25   1     0.05   0.06   0.03     0.02  -0.02   0.04     0.01   0.00   0.01
  26   1     0.05   0.04   0.02     0.03  -0.00   0.01     0.01   0.01   0.01
  27   7     0.17   0.16   0.03    -0.15  -0.06  -0.21    -0.01   0.01  -0.04
  28   1     0.10  -0.01  -0.03    -0.05   0.06  -0.07     0.00   0.01  -0.01
  29   1     0.06   0.02  -0.01    -0.11  -0.01  -0.07    -0.01  -0.00  -0.02
  30   6    -0.04  -0.15  -0.11     0.03   0.11   0.09    -0.01   0.04   0.04
  31   8    -0.10  -0.13  -0.14     0.10   0.08   0.10    -0.04   0.06   0.10
  32   7    -0.04  -0.14  -0.02    -0.02   0.10   0.04     0.03   0.03  -0.01
  33   1    -0.06  -0.01   0.03     0.03  -0.00  -0.02    -0.01   0.01   0.01
  34   1    -0.02  -0.03   0.02     0.01   0.03  -0.01     0.01   0.01  -0.00
  35   7     0.05  -0.27  -0.22    -0.02   0.20   0.15     0.03   0.05   0.00
  36   1     0.02  -0.09  -0.04    -0.02   0.06   0.04     0.01   0.02  -0.00
  37   1     0.01  -0.08  -0.07    -0.01   0.06   0.05    -0.00   0.02   0.02
  38   6    -0.15   0.11  -0.06     0.08   0.20  -0.14    -0.01  -0.02  -0.02
  39   8    -0.20   0.07  -0.09     0.03   0.07  -0.19    -0.01  -0.02  -0.03
  40   7    -0.12   0.14  -0.03     0.22   0.19  -0.21    -0.03  -0.01  -0.01
  41   1    -0.03   0.04   0.01     0.08   0.01  -0.08    -0.01  -0.00  -0.00
  42   1    -0.03   0.06  -0.00     0.06   0.06  -0.05    -0.01  -0.01  -0.00
  43   7    -0.19   0.15  -0.12    -0.06   0.36  -0.05    -0.01  -0.02  -0.03
  44   1    -0.05   0.04  -0.02    -0.00   0.10  -0.03    -0.00  -0.01  -0.01
  45   1    -0.06   0.05  -0.02    -0.04   0.10  -0.00    -0.00  -0.00  -0.00
  46   6     0.03  -0.18   0.09     0.03  -0.17   0.07     0.02   0.03   0.04
  47   8     0.12  -0.10   0.08     0.11  -0.15   0.06     0.04   0.12   0.06
  48   7     0.04  -0.22   0.16     0.01  -0.18   0.12     0.06  -0.02   0.10
  49   1    -0.00  -0.06   0.05     0.00  -0.06   0.03     0.02  -0.00   0.03
  50   1    -0.01  -0.06   0.05     0.00  -0.04   0.04     0.02  -0.02   0.02
  51   7    -0.05  -0.22   0.04     0.00  -0.19   0.09    -0.02  -0.00  -0.04
  52   1    -0.03  -0.08   0.01    -0.02  -0.05   0.04    -0.02  -0.02  -0.01
  53   1    -0.01  -0.05  -0.02    -0.00  -0.05   0.02    -0.02   0.02  -0.02
                     25                     26                     27
                        a                      a                      a 
 Frequencies --   198.5803               222.5065               260.9964
 Red. masses --     2.6259                12.5223                 6.5884
 Frc consts  --     0.0000                 0.0000                 0.0000
 IR Inten    --   149.6497                84.3383                 9.2387
 Raman Activ --     0.0000                 0.0000                 0.0000
 Depolar     --     0.0000                 0.0000                 0.0000
 Atom AN      X      Y      Z        X      Y      Z        X      Y      Z
   1   8    -0.00  -0.00  -0.00     0.02   0.04   0.03    -0.14   0.05   0.32
   2   6    -0.00  -0.00  -0.00     0.01   0.01   0.02     0.04   0.22   0.27
   3   1    -0.00   0.00  -0.00     0.01  -0.00   0.01    -0.08   0.10   0.13
   4   1     0.00   0.00   0.00     0.00   0.00   0.00     0.10   0.16   0.07
   5   6    -0.00   0.00   0.00    -0.00  -0.00   0.00     0.04  -0.08  -0.02
   6   1    -0.00   0.00   0.00    -0.00   0.00  -0.00     0.01   0.02  -0.08
   7   1     0.00   0.00   0.00    -0.00  -0.01   0.00    -0.02  -0.08   0.00
   8   7     0.00   0.00   0.00     0.00  -0.00   0.01     0.03  -0.05  -0.09
   9   6    -0.00   0.00   0.00     0.00  -0.00   0.00     0.03  -0.01  -0.09
  10   1    -0.00   0.00   0.00    -0.00  -0.00   0.00    -0.06  -0.01   0.09
  11   1     0.00   0.00   0.00     0.00   0.00  -0.00     0.06   0.13  -0.07
  12   1    -0.00   0.00   0.00     0.00  -0.00  -0.00     0.04  -0.12  -0.09
  13   6     0.00   0.00   0.00     0.00  -0.00   0.01    -0.11   0.08  -0.03
  14   1    -0.00   0.00   0.00     0.00  -0.00   0.00     0.08  -0.02   0.01
  15   1     0.00  -0.00  -0.00     0.00   0.00   0.00    -0.08   0.13   0.08
  16   1     0.00   0.00   0.00     0.00  -0.00   0.00    -0.13  -0.02  -0.11
  17   6     0.00   0.00  -0.00    -0.00  -0.00   0.00     0.22  -0.08  -0.18
  18   1     0.00   0.00  -0.00    -0.00   0.00   0.00     0.21  -0.01  -0.34
  19   1    -0.00   0.00  -0.00    -0.00  -0.00  -0.00    -0.22   0.05  -0.03
  20   1     0.00   0.00  -0.00    -0.00   0.00  -0.00     0.25  -0.11   0.20
  21   1     0.00  -0.00   0.00     0.00   0.01   0.00     0.02   0.00   0.06
  22   6     0.01   0.05   0.02    -0.03  -0.04   0.01    -0.00  -0.00  -0.00
  23   8     0.08  -0.04  -0.01     0.04  -0.02  -0.04     0.00   0.00  -0.01
  24   7     0.07  -0.00  -0.01    -0.07  -0.06  -0.03    -0.01  -0.00  -0.00
  25   1     0.08  -0.07  -0.03    -0.03  -0.01  -0.03    -0.00  -0.00  -0.00
  26   1     0.14  -0.12  -0.05    -0.02  -0.03  -0.00    -0.00  -0.00  -0.00
  27   7     0.20  -0.15  -0.11     0.03  -0.10   0.11    -0.00  -0.00   0.01
  28   1    -0.47   0.53   0.26    -0.09   0.04   0.09    -0.00  -0.00   0.00
  29   1    -0.32   0.36   0.16    -0.02   0.04   0.07     0.00  -0.00   0.00
  30   6     0.00  -0.02  -0.01    -0.01  -0.01  -0.00    -0.00   0.00  -0.01
  31   8    -0.02  -0.01  -0.01    -0.02  -0.00  -0.01    -0.00   0.00  -0.01
  32   7    -0.01  -0.00   0.01     0.01  -0.00   0.01     0.00   0.00  -0.00
  33   1     0.02  -0.01  -0.02     0.01   0.01  -0.00    -0.00   0.00   0.00
  34   1     0.02  -0.02  -0.02     0.01  -0.01   0.01     0.00   0.00   0.00
  35   7    -0.00  -0.02  -0.02    -0.01  -0.02  -0.01    -0.01  -0.01   0.00
  36   1     0.02  -0.01  -0.02    -0.01  -0.00   0.01     0.00  -0.00   0.00
  37   1     0.01  -0.01  -0.01     0.00  -0.01  -0.01     0.00  -0.01  -0.01
  38   6    -0.06  -0.02   0.02     0.09   0.16  -0.05     0.01   0.01   0.01
  39   8    -0.10  -0.04   0.05     0.29   0.46  -0.17     0.00   0.01   0.01
  40   7    -0.02   0.01   0.06    -0.39   0.12  -0.18     0.02   0.01   0.00
  41   1     0.01  -0.02   0.02    -0.15   0.10  -0.07     0.01   0.00   0.00
  42   1     0.02  -0.00  -0.01    -0.13  -0.06  -0.05     0.00   0.01   0.00
  43   7    -0.07   0.01  -0.04     0.30  -0.16   0.20     0.00   0.01   0.01
  44   1    -0.01   0.01  -0.02     0.01  -0.10   0.11     0.00   0.00   0.00
  45   1    -0.02   0.00  -0.01     0.15  -0.04   0.07    -0.00   0.00  -0.00
  46   6     0.01   0.01  -0.00    -0.04  -0.08   0.03    -0.03  -0.07  -0.04
  47   8     0.01  -0.00  -0.01    -0.02   0.00   0.05    -0.04  -0.14  -0.07
  48   7     0.01   0.02  -0.02    -0.04  -0.11   0.10    -0.09   0.01  -0.12
  49   1    -0.01   0.01  -0.00     0.02  -0.03   0.03    -0.03  -0.00  -0.05
  50   1    -0.00   0.01  -0.00    -0.00  -0.04   0.02    -0.03   0.03  -0.02
  51   7     0.01   0.02   0.02    -0.12  -0.13  -0.10     0.02  -0.03   0.05
  52   1     0.01   0.01   0.00    -0.02  -0.08  -0.05     0.01   0.02   0.02
  53   1     0.01   0.00   0.01    -0.03  -0.02  -0.07     0.02  -0.03   0.03
                     28                     29                     30
                        a                      a                      a 
 Frequencies --   270.1924               299.8207               310.8344
 Red. masses --     8.6955                 2.8698                 8.5246
 Frc consts  --     0.0000                 0.0000                 0.0000
 IR Inten    --    14.1753                93.8532                11.7473
 Raman Activ --     0.0000                 0.0000                 0.0000
 Depolar     --     0.0000                 0.0000                 0.0000
 Atom AN      X      Y      Z        X      Y      Z        X      Y      Z
   1   8    -0.06  -0.29  -0.37    -0.03  -0.10   0.07    -0.13  -0.47   0.10
   2   6    -0.12  -0.04  -0.12     0.04   0.07   0.10     0.08  -0.02   0.14
   3   1    -0.07   0.03  -0.06    -0.04   0.04   0.05    -0.06   0.06   0.04
   4   1     0.00  -0.02   0.02     0.06   0.06   0.04     0.10   0.04   0.08
   5   6    -0.01   0.02   0.04    -0.00  -0.03  -0.03     0.04  -0.02   0.02
   6   1     0.01  -0.02   0.05    -0.01   0.01  -0.04     0.02   0.00  -0.01
   7   1     0.02   0.05   0.00    -0.02  -0.04  -0.00    -0.02  -0.01   0.04
   8   7    -0.00  -0.02   0.07    -0.01  -0.00  -0.04    -0.02   0.07  -0.12
   9   6     0.06  -0.07  -0.05    -0.04   0.04   0.02    -0.11   0.22   0.06
  10   1    -0.07  -0.03   0.16     0.02   0.02  -0.06     0.00   0.09  -0.12
  11   1     0.06   0.17  -0.12    -0.02  -0.05   0.05    -0.03  -0.07   0.13
  12   1     0.09  -0.21  -0.12    -0.03   0.08   0.04    -0.09   0.21   0.09
  13   6    -0.04   0.02   0.09     0.01   0.00  -0.04     0.15  -0.14  -0.23
  14   1     0.14  -0.05   0.04    -0.11   0.04  -0.01    -0.07   0.01  -0.11
  15   1    -0.06   0.15   0.12     0.04  -0.11  -0.08     0.10  -0.16  -0.17
  16   1    -0.13  -0.07  -0.08     0.10   0.07   0.06     0.14  -0.03   0.06
  17   6    -0.00  -0.03   0.09     0.02   0.00  -0.09    -0.10   0.11  -0.14
  18   1     0.09   0.01  -0.14    -0.01  -0.00  -0.00     0.04   0.08  -0.17
  19   1    -0.17   0.05   0.05     0.03  -0.01  -0.03    -0.18   0.06  -0.03
  20   1     0.09  -0.09   0.18    -0.00   0.02  -0.05     0.03  -0.04   0.07
  21   1     0.01  -0.10  -0.09     0.03  -0.05   0.01    -0.01  -0.15   0.05
  22   6     0.01   0.01   0.01    -0.00   0.00  -0.00     0.00  -0.00   0.00
  23   8    -0.00   0.00   0.01     0.00   0.00  -0.00     0.00  -0.00   0.01
  24   7     0.02   0.00   0.01     0.00  -0.00  -0.00     0.00   0.00   0.00
  25   1     0.00   0.00   0.00    -0.00   0.00   0.00     0.00  -0.00  -0.00
  26   1     0.00   0.00   0.00    -0.01   0.00   0.00     0.00  -0.00   0.00
  27   7     0.01   0.01  -0.01     0.00  -0.01   0.00    -0.00   0.00  -0.01
  28   1     0.00   0.01  -0.00    -0.01   0.00   0.01     0.00   0.00  -0.00
  29   1    -0.00   0.00  -0.00    -0.00   0.00   0.00    -0.00  -0.00  -0.00
  30   6    -0.01   0.01  -0.01     0.01  -0.01   0.00     0.00  -0.00   0.02
  31   8    -0.00   0.01  -0.02     0.01  -0.01   0.01    -0.00   0.00   0.02
  32   7     0.01   0.01   0.00    -0.00  -0.01  -0.00     0.00  -0.01  -0.00
  33   1    -0.01   0.01   0.01     0.01  -0.01  -0.01    -0.02  -0.00   0.01
  34   1    -0.00   0.00   0.01     0.01  -0.00  -0.01    -0.01   0.00   0.00
  35   7    -0.01  -0.01  -0.01    -0.00   0.01   0.01     0.02   0.01   0.00
  36   1    -0.00  -0.00   0.00     0.00   0.00   0.00    -0.00   0.01  -0.00
  37   1    -0.01   0.00   0.00     0.01  -0.01  -0.01    -0.00   0.01   0.01
  38   6    -0.01  -0.02  -0.01    -0.00   0.00   0.01    -0.00  -0.01  -0.01
  39   8    -0.01  -0.02  -0.01    -0.01   0.02   0.02     0.00  -0.01  -0.02
  40   7    -0.03  -0.02  -0.01    -0.03  -0.01  -0.01    -0.01  -0.00  -0.00
  41   1    -0.01  -0.00  -0.00    -0.01   0.01  -0.00    -0.00   0.00   0.00
  42   1    -0.01  -0.01  -0.01    -0.01  -0.01  -0.00    -0.00  -0.00  -0.00
  43   7    -0.01  -0.02  -0.03    -0.00  -0.01   0.01    -0.00  -0.00  -0.01
  44   1    -0.01  -0.00  -0.00     0.02  -0.01  -0.02    -0.00   0.00  -0.00
  45   1    -0.00  -0.00   0.01     0.01  -0.00  -0.01     0.00  -0.00  -0.00
  46   6     0.04   0.16   0.09    -0.02   0.03   0.01     0.03   0.10   0.03
  47   8     0.03   0.29   0.15     0.02   0.04  -0.00     0.00   0.14   0.06
  48   7     0.18  -0.02   0.24    -0.02   0.00   0.03     0.11  -0.01   0.13
  49   1     0.08   0.00   0.09     0.07  -0.02  -0.04     0.02   0.01   0.07
  50   1     0.09  -0.08   0.02     0.21  -0.09  -0.15    -0.03  -0.02   0.07
  51   7    -0.01   0.05  -0.15     0.21  -0.13  -0.17    -0.10   0.09  -0.04
  52   1    -0.11  -0.00   0.01    -0.56   0.22   0.34     0.16  -0.09  -0.14
  53   1    -0.11   0.09  -0.00    -0.34   0.17   0.23     0.06  -0.01  -0.09
                     31                     32                     33
                        a                      a                      a 
 Frequencies --   316.3667               337.6615               353.5668
 Red. masses --     5.7365                 3.8464                 3.8676
 Frc consts  --     0.0000                 0.0000                 0.0000
 IR Inten    --     9.4654                 6.0125                 3.6754
 Raman Activ --     0.0000                 0.0000                 0.0000
 Depolar     --     0.0000                 0.0000                 0.0000
 Atom AN      X      Y      Z        X      Y      Z        X      Y      Z
   1   8    -0.01   0.01   0.26    -0.19  -0.19   0.09     0.02   0.15   0.12
   2   6     0.10  -0.22  -0.06    -0.02   0.15   0.18    -0.03  -0.17  -0.05
   3   1     0.11  -0.11  -0.05    -0.11   0.10   0.11     0.06  -0.09  -0.03
   4   1    -0.07  -0.11  -0.07     0.11   0.14   0.07    -0.09  -0.09  -0.06
   5   6     0.02   0.01   0.02    -0.06  -0.11  -0.13    -0.02  -0.02   0.05
   6   1    -0.02   0.01   0.03    -0.07   0.04  -0.12    -0.03  -0.02   0.06
   7   1    -0.01  -0.00   0.03    -0.05  -0.14  -0.06     0.01   0.01   0.00
   8   7     0.02   0.12  -0.06     0.06  -0.04  -0.05     0.02   0.04   0.03
   9   6    -0.04   0.21   0.04     0.08   0.10  -0.08     0.14   0.06  -0.17
  10   1    -0.07   0.07   0.06    -0.15   0.04   0.20    -0.10   0.02   0.15
  11   1     0.04   0.13   0.02     0.12   0.31  -0.14     0.10   0.27  -0.19
  12   1    -0.01   0.02  -0.01     0.12  -0.21  -0.15     0.16  -0.21  -0.16
  13   6     0.20  -0.17  -0.22     0.13   0.02   0.00     0.12  -0.07  -0.02
  14   1     0.41  -0.14  -0.12     0.03   0.00   0.02    -0.24   0.07  -0.03
  15   1    -0.02   0.24   0.10     0.06   0.01  -0.02     0.14  -0.27  -0.19
  16   1    -0.19  -0.31  -0.20     0.06   0.02   0.02     0.25   0.11   0.19
  17   6    -0.20   0.15   0.06    -0.02  -0.02  -0.03    -0.24   0.11   0.12
  18   1    -0.07   0.08   0.05    -0.17  -0.03   0.31     0.01   0.11  -0.11
  19   1    -0.05   0.05   0.02     0.30  -0.09  -0.04    -0.26   0.10   0.06
  20   1    -0.10  -0.00  -0.00    -0.20   0.11  -0.29    -0.02  -0.10   0.17
  21   1    -0.03   0.04   0.04     0.03  -0.08   0.01    -0.00   0.08  -0.01
  22   6     0.00  -0.00  -0.00     0.00   0.00   0.00    -0.01   0.01   0.00
  23   8     0.00  -0.00  -0.00    -0.00   0.00   0.00    -0.01   0.01   0.00
  24   7    -0.00   0.00  -0.00     0.00   0.00   0.00     0.00  -0.01  -0.00
  25   1     0.00  -0.00   0.00     0.00  -0.00  -0.00    -0.00   0.00   0.00
  26   1     0.00  -0.00  -0.00     0.00  -0.00   0.00    -0.01   0.01   0.00
  27   7    -0.00  -0.00   0.00     0.00   0.00  -0.00     0.00  -0.00  -0.00
  28   1    -0.00   0.00   0.00     0.00   0.00  -0.00     0.00  -0.01  -0.00
  29   1     0.00   0.00   0.00    -0.00  -0.00  -0.00    -0.00   0.00   0.00
  30   6    -0.01   0.00   0.01     0.01  -0.00  -0.01     0.02  -0.01  -0.01
  31   8    -0.02   0.01   0.02     0.01  -0.01  -0.02     0.01  -0.00  -0.00
  32   7     0.02  -0.01  -0.02     0.00  -0.00  -0.00    -0.03   0.02   0.03
  33   1    -0.04   0.01   0.03    -0.01   0.00   0.01     0.09  -0.03  -0.07
  34   1    -0.01   0.01   0.01    -0.01   0.00   0.01     0.04  -0.02  -0.03
  35   7    -0.01   0.00   0.01    -0.00  -0.00   0.00     0.02  -0.01  -0.01
  36   1     0.00  -0.00  -0.00    -0.00  -0.00   0.00     0.00   0.00  -0.00
  37   1     0.01  -0.00  -0.01     0.00  -0.00  -0.00    -0.00   0.01   0.01
  38   6     0.00   0.00   0.00    -0.00  -0.00   0.00    -0.00   0.00   0.01
  39   8    -0.00   0.01   0.01    -0.00  -0.00  -0.00    -0.00  -0.00   0.01
  40   7     0.00  -0.00  -0.00     0.01  -0.00  -0.00    -0.00   0.01   0.01
  41   1    -0.00   0.00   0.00     0.00  -0.00   0.00     0.00  -0.01  -0.01
  42   1    -0.00   0.00   0.01     0.00   0.00  -0.00     0.02  -0.02  -0.03
  43   7     0.00  -0.00   0.00    -0.00   0.00  -0.01     0.01  -0.01  -0.01
  44   1     0.00  -0.00  -0.01    -0.01   0.01   0.01    -0.03   0.02   0.04
  45   1     0.00  -0.00  -0.00    -0.00  -0.00   0.00    -0.01   0.00   0.01
  46   6    -0.01  -0.04  -0.01    -0.00   0.03   0.01    -0.01  -0.04  -0.01
  47   8     0.01  -0.05  -0.03    -0.02   0.03   0.02    -0.00  -0.04  -0.02
  48   7    -0.05   0.00  -0.05     0.03  -0.00   0.03    -0.04   0.00  -0.05
  49   1    -0.00  -0.01  -0.03     0.00   0.00   0.02    -0.01  -0.00  -0.03
  50   1     0.03  -0.00  -0.05    -0.02   0.00   0.03     0.01   0.01  -0.02
  51   7     0.05  -0.05   0.00    -0.03   0.03  -0.01     0.02  -0.03   0.03
  52   1    -0.11   0.05   0.08     0.07  -0.03  -0.05    -0.03   0.02   0.03
  53   1    -0.05   0.02   0.05     0.02  -0.00  -0.02     0.01  -0.01   0.01
                     34                     35                     36
                        a                      a                      a 
 Frequencies --   366.3785               371.9407               383.9069
 Red. masses --     5.2501                 4.6558                 2.5914
 Frc consts  --     0.0000                 0.0000                 0.0000
 IR Inten    --    64.8043                60.0347                90.0808
 Raman Activ --     0.0000                 0.0000                 0.0000
 Depolar     --     0.0000                 0.0000                 0.0000
 Atom AN      X      Y      Z        X      Y      Z        X      Y      Z
   1   8     0.01  -0.02  -0.01     0.03   0.04  -0.01     0.00  -0.00  -0.00
   2   6     0.10   0.05  -0.06     0.07   0.03  -0.06     0.00   0.01   0.00
   3   1     0.06   0.02  -0.06     0.06   0.00  -0.07    -0.00   0.00   0.00
   4   1    -0.00  -0.01  -0.02    -0.02  -0.03  -0.02     0.00   0.00   0.00
   5   6     0.16   0.15   0.11     0.15   0.14   0.12     0.00  -0.00  -0.01
   6   1     0.10  -0.01   0.06     0.10  -0.02   0.07    -0.00   0.00  -0.00
   7   1     0.06   0.13   0.07     0.06   0.13   0.06    -0.00  -0.00  -0.00
   8   7    -0.02   0.01  -0.00    -0.03  -0.01   0.02    -0.01  -0.01  -0.00
   9   6    -0.18  -0.03   0.24    -0.14  -0.02   0.20    -0.00  -0.00  -0.01
  10   1    -0.13  -0.02   0.22    -0.15  -0.01   0.23     0.01   0.00  -0.02
  11   1     0.04   0.12   0.07     0.05   0.17   0.03    -0.01  -0.02   0.01
  12   1    -0.10  -0.13  -0.02    -0.05  -0.17  -0.04    -0.00   0.02   0.01
  13   6    -0.18  -0.16  -0.14    -0.17  -0.15  -0.10     0.00   0.01   0.01
  14   1    -0.07  -0.02  -0.10    -0.14   0.00  -0.08     0.00  -0.00   0.01
  15   1    -0.08  -0.10  -0.01    -0.04  -0.18  -0.06     0.00   0.01   0.00
  16   1    -0.06  -0.05  -0.05     0.01  -0.00   0.02    -0.00   0.00   0.00
  17   6     0.12  -0.00  -0.16     0.07   0.00  -0.14    -0.00  -0.02  -0.00
  18   1     0.01  -0.02  -0.00     0.02  -0.01  -0.04     0.00  -0.01  -0.00
  19   1     0.10  -0.07  -0.09     0.04  -0.05  -0.08    -0.00  -0.00   0.00
  20   1     0.03   0.09  -0.10     0.03   0.06  -0.07     0.00  -0.00   0.00
  21   1    -0.00  -0.01   0.01     0.00   0.01   0.00     0.01   0.00  -0.01
  22   6    -0.03   0.03   0.01     0.04  -0.03  -0.01     0.00   0.00   0.00
  23   8    -0.03   0.04   0.01     0.04  -0.04  -0.01     0.01  -0.00  -0.00
  24   7     0.03  -0.03  -0.01    -0.04   0.03   0.01     0.00  -0.01   0.00
  25   1    -0.01   0.02   0.01     0.02  -0.02  -0.01    -0.00  -0.00  -0.00
  26   1    -0.07   0.08   0.03     0.09  -0.09  -0.04    -0.02   0.01   0.01
  27   7     0.01  -0.02  -0.01    -0.02   0.02   0.01     0.00   0.00  -0.01
  28   1     0.02  -0.02  -0.01    -0.02   0.02   0.01    -0.01   0.01   0.00
  29   1    -0.01   0.01   0.00     0.01  -0.01  -0.01    -0.00  -0.00  -0.00
  30   6     0.03  -0.02  -0.03    -0.02   0.01   0.02    -0.02   0.02   0.03
  31   8    -0.04   0.02   0.05     0.04  -0.02  -0.06     0.01   0.01  -0.01
  32   7    -0.15   0.09   0.13     0.18  -0.08  -0.11     0.07  -0.03  -0.06
  33   1     0.38  -0.12  -0.29    -0.39   0.14   0.31    -0.20   0.05   0.15
  34   1     0.18  -0.09  -0.14    -0.17   0.10   0.16    -0.07   0.04   0.04
  35   7     0.08  -0.06  -0.07    -0.08   0.10   0.08    -0.01   0.03   0.03
  36   1     0.01  -0.01  -0.02    -0.02   0.02   0.02     0.00   0.00   0.01
  37   1    -0.06   0.04   0.06     0.09  -0.04  -0.07     0.00  -0.00  -0.01
  38   6    -0.00   0.00   0.01     0.00  -0.00  -0.01    -0.04   0.03   0.06
  39   8    -0.00  -0.03   0.01     0.00   0.03  -0.01    -0.06  -0.02   0.07
  40   7    -0.03   0.03   0.04     0.03  -0.03  -0.04     0.01   0.03  -0.04
  41   1     0.01  -0.03  -0.02    -0.01   0.03   0.02     0.04  -0.05  -0.02
  42   1     0.08  -0.09  -0.12    -0.07   0.08   0.12     0.14  -0.13  -0.22
  43   7     0.03  -0.01  -0.03    -0.03   0.01   0.02     0.16  -0.07  -0.20
  44   1    -0.07   0.06   0.12     0.06  -0.05  -0.10    -0.41   0.28   0.64
  45   1    -0.02   0.01   0.03     0.02  -0.00  -0.01    -0.09   0.02   0.08
  46   6     0.01   0.01  -0.00    -0.01  -0.01   0.00     0.05  -0.02  -0.04
  47   8     0.00   0.00  -0.00    -0.00  -0.01   0.00     0.05  -0.01  -0.04
  48   7     0.00   0.00   0.01    -0.01  -0.00  -0.01    -0.06   0.03   0.04
  49   1     0.00   0.00   0.00    -0.00  -0.00  -0.01     0.03  -0.01  -0.03
  50   1     0.01  -0.00  -0.00    -0.00   0.00  -0.00     0.14  -0.05  -0.11
  51   7    -0.01   0.01  -0.00     0.01  -0.01   0.01    -0.05   0.02   0.03
  52   1     0.00  -0.00  -0.01    -0.00   0.00   0.01     0.00  -0.00  -0.00
  53   1    -0.00   0.00  -0.00     0.00  -0.00   0.00     0.01  -0.01  -0.01
                     37                     38                     39
                        a                      a                      a 
 Frequencies --   399.8161               422.6674               425.4512
 Red. masses --     3.1502                 8.7028                 3.3079
 Frc consts  --     0.0000                 0.0000                 0.0000
 IR Inten    --   102.6054                 6.2801               342.1520
 Raman Activ --     0.0000                 0.0000                 0.0000
 Depolar     --     0.0000                 0.0000                 0.0000
 Atom AN      X      Y      Z        X      Y      Z        X      Y      Z
   1   8    -0.00  -0.01   0.00    -0.05  -0.15   0.18    -0.01  -0.02   0.03
   2   6     0.00  -0.00   0.00     0.19  -0.06  -0.07     0.04  -0.01  -0.02
   3   1    -0.00  -0.00   0.00     0.07  -0.02  -0.04     0.02  -0.01  -0.01
   4   1     0.00   0.00  -0.00     0.03  -0.03  -0.04     0.00  -0.01  -0.01
   5   6    -0.00  -0.00  -0.01     0.03   0.09  -0.11     0.01   0.01  -0.02
   6   1    -0.01   0.00  -0.00     0.00   0.04  -0.05     0.00   0.01  -0.01
   7   1    -0.00  -0.01  -0.00    -0.04  -0.00   0.01    -0.01   0.00   0.00
   8   7     0.00   0.00  -0.00    -0.07   0.19  -0.26    -0.01   0.03  -0.04
   9   6     0.00  -0.00  -0.00    -0.28  -0.25  -0.03    -0.04  -0.03   0.00
  10   1     0.01  -0.00  -0.01    -0.03  -0.13   0.13    -0.00  -0.02   0.01
  11   1    -0.00  -0.01   0.00    -0.07  -0.06  -0.00    -0.01  -0.01   0.01
  12   1    -0.00   0.01   0.00    -0.19  -0.16  -0.08    -0.03  -0.02  -0.01
  13   6     0.00   0.00  -0.00     0.06   0.29  -0.18     0.00   0.04  -0.03
  14   1     0.01  -0.00  -0.00    -0.03   0.08   0.01    -0.01   0.01   0.00
  15   1    -0.00   0.01   0.00     0.05   0.07  -0.09     0.00   0.01  -0.01
  16   1    -0.00  -0.00  -0.00     0.07   0.13  -0.02     0.01   0.02  -0.00
  17   6     0.00   0.00   0.00     0.11  -0.06   0.37     0.01  -0.01   0.05
  18   1     0.00   0.00   0.00     0.01  -0.17   0.13     0.00  -0.02   0.01
  19   1     0.00   0.00   0.00     0.11   0.12   0.22     0.01   0.02   0.03
  20   1    -0.00  -0.00   0.00     0.04  -0.08   0.16     0.01  -0.01   0.03
  21   1     0.01  -0.00  -0.00    -0.02  -0.04   0.05     0.02  -0.00  -0.01
  22   6     0.10  -0.09  -0.03     0.00  -0.00  -0.00    -0.03   0.02   0.01
  23   8     0.03  -0.06   0.01     0.00  -0.00   0.00    -0.01   0.01  -0.01
  24   7    -0.21   0.19   0.05    -0.01   0.01   0.00     0.05  -0.04  -0.01
  25   1     0.05  -0.07  -0.01    -0.00  -0.00   0.00     0.00   0.00  -0.01
  26   1     0.57  -0.57  -0.23     0.02  -0.02  -0.01    -0.16   0.16   0.06
  27   7    -0.10   0.14   0.05    -0.00   0.01   0.00     0.03  -0.04  -0.01
  28   1     0.08  -0.06  -0.05     0.00   0.00  -0.00    -0.02   0.01   0.01
  29   1     0.03  -0.04  -0.03     0.00  -0.00  -0.00    -0.01   0.02   0.01
  30   6    -0.00  -0.01  -0.01    -0.00  -0.00  -0.01     0.01   0.01   0.01
  31   8    -0.02  -0.00   0.01     0.00  -0.01  -0.00     0.01   0.01  -0.01
  32   7    -0.03   0.01   0.04     0.01   0.01   0.00     0.02  -0.01  -0.03
  33   1     0.11  -0.02  -0.08     0.00   0.01   0.00    -0.08   0.01   0.06
  34   1     0.03  -0.02  -0.00     0.00  -0.00   0.01    -0.02   0.01  -0.01
  35   7     0.05  -0.02  -0.04    -0.01   0.01  -0.01    -0.03   0.02   0.03
  36   1    -0.03   0.02  -0.01    -0.01   0.00   0.00     0.02  -0.01   0.00
  37   1    -0.05   0.04   0.05     0.00  -0.00  -0.01     0.04  -0.03  -0.03
  38   6    -0.01   0.02   0.01    -0.00   0.00   0.00     0.01  -0.01  -0.02
  39   8    -0.01   0.01   0.02     0.00   0.00   0.00     0.00  -0.02  -0.03
  40   7    -0.02  -0.01  -0.03    -0.00  -0.01  -0.01    -0.00   0.04   0.03
  41   1    -0.02   0.04   0.07    -0.00   0.00   0.00     0.02  -0.03  -0.01
  42   1     0.04  -0.03  -0.07    -0.01   0.01   0.01     0.06  -0.04  -0.08
  43   7     0.02  -0.00  -0.02    -0.01   0.00   0.00     0.03  -0.02   0.00
  44   1    -0.05   0.04   0.09     0.01  -0.01  -0.02    -0.08   0.05   0.13
  45   1    -0.01  -0.00  -0.00    -0.00   0.00   0.00     0.02  -0.01  -0.03
  46   6    -0.03   0.01   0.03     0.02   0.00  -0.02    -0.11   0.04   0.10
  47   8    -0.01   0.01   0.02     0.01   0.00  -0.01    -0.04   0.03   0.05
  48   7     0.06  -0.02  -0.05    -0.02   0.01   0.04     0.20  -0.06  -0.17
  49   1    -0.03   0.01   0.01     0.01  -0.00   0.00    -0.04   0.02   0.02
  50   1    -0.16   0.07   0.12     0.09  -0.04  -0.06    -0.62   0.25   0.46
  51   7     0.05  -0.03  -0.04    -0.03   0.02   0.01     0.16  -0.08  -0.12
  52   1    -0.06   0.01   0.03     0.03  -0.01  -0.02    -0.15   0.04   0.08
  53   1    -0.02   0.01   0.01     0.00  -0.00  -0.00    -0.08   0.04   0.05
                     40                     41                     42
                        a                      a                      a 
 Frequencies --   453.4863               467.4320               471.1931
 Red. masses --     8.1450                 7.9715                 7.7455
 Frc consts  --     0.0000                 0.0000                 0.0000
 IR Inten    --     0.3385                31.0888                16.3602
 Raman Activ --     0.0000                 0.0000                 0.0000
 Depolar     --     0.0000                 0.0000                 0.0000
 Atom AN      X      Y      Z        X      Y      Z        X      Y      Z
   1   8     0.05   0.05  -0.04     0.00   0.01   0.00     0.01   0.02  -0.01
   2   6    -0.19  -0.00   0.18     0.01   0.00  -0.01     0.08   0.04  -0.08
   3   1    -0.03  -0.01   0.03     0.00   0.00  -0.00     0.03   0.02  -0.04
   4   1    -0.07  -0.05   0.09     0.00   0.00  -0.01     0.02   0.01  -0.03
   5   6    -0.17   0.16   0.28     0.03  -0.00   0.00     0.20  -0.01   0.04
   6   1     0.04  -0.04   0.15     0.02  -0.01   0.01     0.16  -0.09   0.06
   7   1    -0.02   0.18   0.12     0.01   0.02   0.01     0.08   0.14   0.07
   8   7    -0.30   0.10   0.02    -0.01  -0.03  -0.02    -0.12  -0.22  -0.14
   9   6    -0.14  -0.02  -0.31    -0.02   0.03  -0.00    -0.16   0.25  -0.03
  10   1     0.01  -0.03  -0.09    -0.02   0.02  -0.00    -0.15   0.12  -0.04
  11   1    -0.10  -0.01  -0.17     0.01   0.02   0.01     0.03   0.13   0.04
  12   1     0.04  -0.03  -0.09    -0.00   0.01   0.00    -0.01   0.10   0.02
  13   6     0.30  -0.15  -0.03     0.01   0.02   0.02     0.10   0.14   0.17
  14   1     0.16  -0.06  -0.03     0.00   0.00   0.02     0.03  -0.00   0.18
  15   1     0.17   0.02  -0.11     0.01   0.01   0.00     0.07   0.13   0.01
  16   1     0.11  -0.16   0.11     0.01   0.01   0.01     0.06   0.10   0.04
  17   6     0.27  -0.07  -0.07    -0.02  -0.04  -0.00    -0.14  -0.30  -0.02
  18   1     0.07  -0.17  -0.03    -0.01  -0.01  -0.00    -0.04  -0.10  -0.01
  19   1     0.18  -0.05  -0.03    -0.01  -0.01   0.00    -0.04  -0.05   0.02
  20   1     0.15   0.11  -0.02    -0.01  -0.01   0.00    -0.04  -0.11   0.01
  21   1     0.02   0.01  -0.02    -0.00   0.00   0.00    -0.01   0.00   0.01
  22   6    -0.00   0.00  -0.00    -0.11   0.00  -0.22    -0.02   0.01  -0.05
  23   8    -0.00  -0.00  -0.00    -0.23  -0.14  -0.15    -0.05  -0.04  -0.03
  24   7     0.00   0.00  -0.00     0.24   0.25  -0.00     0.06   0.06  -0.00
  25   1     0.00  -0.00   0.00     0.11   0.03   0.13     0.02   0.02   0.03
  26   1     0.00   0.00  -0.00     0.16   0.15  -0.08     0.05   0.02  -0.02
  27   7     0.00  -0.00   0.00    -0.01  -0.14   0.26     0.00  -0.02   0.06
  28   1    -0.00  -0.00   0.00    -0.13  -0.19   0.19    -0.04  -0.03   0.05
  29   1     0.00   0.00   0.00     0.20   0.05   0.18     0.06   0.01   0.04
  30   6    -0.01   0.00   0.00     0.03   0.02   0.01     0.07   0.08   0.03
  31   8    -0.00   0.00   0.01     0.02   0.03   0.02     0.07   0.11  -0.00
  32   7     0.00   0.01  -0.00    -0.01  -0.00  -0.04    -0.14   0.00  -0.07
  33   1     0.00   0.00  -0.00    -0.05  -0.01   0.02    -0.04  -0.11  -0.04
  34   1     0.00  -0.00  -0.00    -0.02   0.02  -0.02    -0.04   0.04  -0.11
  35   7    -0.00  -0.00  -0.00    -0.01  -0.01   0.03     0.04  -0.16   0.05
  36   1     0.00  -0.00   0.00    -0.02  -0.02   0.05     0.04  -0.07   0.04
  37   1    -0.00  -0.00  -0.00     0.03  -0.05  -0.06    -0.11  -0.03   0.04
  38   6     0.00  -0.00  -0.00     0.12  -0.06   0.02    -0.05   0.02   0.01
  39   8     0.00  -0.00  -0.00     0.11  -0.08   0.02    -0.04   0.05   0.00
  40   7    -0.00   0.00   0.01    -0.18  -0.04   0.03     0.10  -0.02  -0.03
  41   1     0.00  -0.00   0.00    -0.08   0.06   0.07     0.04  -0.05  -0.09
  42   1     0.01  -0.01  -0.01     0.10  -0.22  -0.24    -0.11   0.14   0.20
  43   7     0.00   0.00   0.00    -0.06   0.19  -0.03     0.02  -0.08  -0.03
  44   1     0.00  -0.00  -0.00     0.08   0.09  -0.10    -0.04  -0.02   0.05
  45   1    -0.00   0.00   0.00    -0.09   0.04  -0.04     0.01  -0.01   0.03
  46   6    -0.00  -0.01   0.00    -0.05  -0.00  -0.07     0.04  -0.00   0.06
  47   8    -0.00  -0.00   0.00    -0.02   0.06  -0.08     0.02  -0.05   0.07
  48   7    -0.00   0.00  -0.01    -0.01  -0.11   0.05     0.02   0.10  -0.05
  49   1    -0.00   0.00  -0.01     0.03  -0.02   0.04    -0.03   0.02  -0.04
  50   1    -0.01   0.01   0.00    -0.01  -0.08   0.01     0.02   0.07  -0.01
  51   7     0.00  -0.01   0.00     0.07   0.05   0.07    -0.06  -0.05  -0.05
  52   1    -0.02   0.00   0.01     0.10   0.08  -0.01    -0.11  -0.06   0.02
  53   1     0.01  -0.00  -0.01    -0.00  -0.02   0.12     0.04   0.00  -0.13
                     43                     44                     45
                        a                      a                      a 
 Frequencies --   475.0706               480.0165               484.8655
 Red. masses --     6.9701                 3.7967                 4.9682
 Frc consts  --     0.0000                 0.0000                 0.0000
 IR Inten    --    41.7835               140.4072                40.5009
 Raman Activ --     0.0000                 0.0000                 0.0000
 Depolar     --     0.0000                 0.0000                 0.0000
 Atom AN      X      Y      Z        X      Y      Z        X      Y      Z
   1   8     0.02   0.04   0.00    -0.01  -0.02  -0.02    -0.00   0.00  -0.01
   2   6     0.05   0.02  -0.05    -0.00   0.01  -0.01    -0.01  -0.01  -0.00
   3   1     0.02   0.01  -0.02    -0.01   0.01   0.00     0.00  -0.01  -0.00
   4   1     0.01   0.01  -0.02     0.01   0.01   0.00    -0.01  -0.00  -0.00
   5   6     0.13  -0.01   0.03     0.02  -0.01  -0.00    -0.00  -0.00   0.00
   6   1     0.10  -0.06   0.04     0.01  -0.01   0.00    -0.00  -0.00   0.00
   7   1     0.05   0.09   0.04     0.01   0.01   0.00     0.00   0.00  -0.00
   8   7    -0.08  -0.15  -0.09     0.01  -0.02  -0.01     0.00   0.00   0.00
   9   6    -0.10   0.18  -0.02    -0.00   0.02   0.01     0.01   0.00  -0.00
  10   1    -0.10   0.08  -0.04    -0.01   0.01  -0.00     0.00   0.00  -0.00
  11   1     0.02   0.09   0.03     0.01   0.01   0.01    -0.00  -0.00  -0.00
  12   1    -0.00   0.07   0.01    -0.00   0.01   0.00     0.00   0.00   0.00
  13   6     0.07   0.09   0.12     0.01   0.02   0.01     0.00  -0.00  -0.00
  14   1     0.02  -0.00   0.12     0.00   0.00   0.01     0.00  -0.00  -0.00
  15   1     0.05   0.10   0.01     0.00   0.01   0.00    -0.00  -0.00   0.00
  16   1     0.04   0.06   0.03     0.00   0.01  -0.00    -0.00  -0.00  -0.00
  17   6    -0.10  -0.20  -0.02    -0.01  -0.02   0.00    -0.00   0.01  -0.00
  18   1    -0.03  -0.06  -0.01    -0.01  -0.00   0.00     0.00   0.00  -0.00
  19   1    -0.03  -0.03   0.01    -0.00  -0.00   0.00    -0.00   0.00  -0.00
  20   1    -0.03  -0.07   0.01    -0.01  -0.01  -0.00     0.00   0.00   0.00
  21   1    -0.01   0.01   0.01    -0.02  -0.01   0.01     0.02  -0.00  -0.01
  22   6     0.07   0.00   0.13    -0.00  -0.00  -0.01    -0.01   0.00  -0.04
  23   8     0.14   0.09   0.09    -0.01  -0.00  -0.01    -0.03  -0.03  -0.02
  24   7    -0.17  -0.14  -0.00    -0.02   0.02  -0.00     0.02   0.05  -0.00
  25   1    -0.06  -0.03  -0.09     0.01  -0.01  -0.00     0.01   0.01   0.02
  26   1    -0.10  -0.10   0.04    -0.00   0.01  -0.00     0.04   0.00  -0.02
  27   7     0.01   0.09  -0.16     0.00  -0.01   0.01    -0.00  -0.02   0.04
  28   1     0.12   0.08  -0.14     0.05  -0.06  -0.03     0.03  -0.07   0.00
  29   1    -0.15   0.00  -0.09    -0.06   0.07   0.03    -0.02   0.06   0.05
  30   6    -0.02  -0.04  -0.04    -0.04  -0.04  -0.05    -0.01   0.01  -0.02
  31   8    -0.03  -0.08   0.03    -0.03  -0.10   0.05     0.02  -0.03   0.05
  32   7     0.07  -0.00   0.02     0.10   0.02   0.03     0.02   0.03  -0.01
  33   1     0.04   0.05  -0.00     0.04   0.08   0.01     0.01   0.01  -0.00
  34   1     0.04  -0.03   0.04     0.05  -0.04   0.05     0.05  -0.02  -0.03
  35   7    -0.09   0.07  -0.01    -0.11   0.11  -0.02    -0.07   0.02   0.02
  36   1    -0.02   0.00   0.02    -0.03   0.01   0.03    -0.01  -0.02   0.06
  37   1     0.17  -0.10  -0.16     0.20  -0.10  -0.19     0.12  -0.11  -0.15
  38   6     0.06  -0.02  -0.01     0.01  -0.03  -0.05    -0.06   0.01  -0.04
  39   8     0.04  -0.06  -0.00     0.01  -0.02  -0.05    -0.05   0.03  -0.05
  40   7    -0.13   0.03   0.04    -0.02   0.07   0.10     0.08   0.07   0.07
  41   1    -0.05   0.06   0.09     0.02   0.01   0.14     0.06  -0.04   0.06
  42   1     0.12  -0.17  -0.23     0.22  -0.14  -0.28     0.13  -0.00  -0.12
  43   7    -0.01   0.08   0.05    -0.06   0.03   0.08    -0.03  -0.07   0.06
  44   1     0.06   0.00  -0.07     0.06  -0.04  -0.09     0.00  -0.07  -0.02
  45   1    -0.00   0.01  -0.02     0.01  -0.00  -0.01     0.04  -0.02   0.01
  46   6    -0.07  -0.01  -0.10     0.06   0.02   0.13     0.14  -0.03   0.12
  47   8    -0.03   0.09  -0.12    -0.00  -0.11   0.15     0.15  -0.12   0.12
  48   7    -0.04  -0.16   0.07     0.07   0.17  -0.10    -0.09   0.27  -0.05
  49   1     0.04  -0.03   0.06    -0.07   0.05  -0.05    -0.03   0.02  -0.15
  50   1    -0.03  -0.11   0.01     0.11   0.09  -0.07     0.04   0.18  -0.03
  51   7     0.10   0.07   0.08    -0.12  -0.04  -0.05    -0.14  -0.17  -0.16
  52   1     0.17   0.11  -0.03    -0.34  -0.10   0.12     0.25  -0.25  -0.24
  53   1    -0.07  -0.01   0.22     0.31  -0.08  -0.46    -0.49   0.23   0.22
                     46                     47                     48
                        a                      a                      a 
 Frequencies --   487.5233               491.9720               501.8846
 Red. masses --     1.8974                 7.3321                 3.2790
 Frc consts  --     0.0000                 0.0000                 0.0000
 IR Inten    --    11.2090               148.5281                38.0561
 Raman Activ --     0.0000                 0.0000                 0.0000
 Depolar     --     0.0000                 0.0000                 0.0000
 Atom AN      X      Y      Z        X      Y      Z        X      Y      Z
   1   8     0.00   0.00  -0.00     0.00   0.01  -0.00    -0.01  -0.01  -0.00
   2   6     0.00   0.00  -0.00     0.01   0.01  -0.01    -0.01  -0.01   0.01
   3   1    -0.00   0.00  -0.00     0.00   0.00  -0.00    -0.01  -0.00   0.01
   4   1     0.00   0.00  -0.00     0.00   0.01  -0.01    -0.00  -0.00   0.01
   5   6     0.01  -0.00   0.00     0.04  -0.01   0.01    -0.03   0.00  -0.01
   6   1     0.01  -0.01   0.01     0.03  -0.02   0.02    -0.03   0.02  -0.01
   7   1     0.01   0.01   0.00     0.02   0.03   0.01    -0.01  -0.02  -0.01
   8   7    -0.01  -0.01  -0.01    -0.03  -0.05  -0.03     0.02   0.03   0.02
   9   6    -0.01   0.02  -0.00    -0.03   0.07  -0.01     0.03  -0.04  -0.00
  10   1    -0.01   0.01  -0.01    -0.03   0.03  -0.02     0.02  -0.02  -0.00
  11   1     0.00   0.01   0.00     0.00   0.02   0.01    -0.01  -0.03  -0.01
  12   1     0.00   0.01   0.00     0.00   0.04   0.01     0.00  -0.01  -0.00
  13   6     0.01   0.01   0.01     0.03   0.03   0.04    -0.01  -0.03  -0.03
  14   1     0.00  -0.00   0.01     0.01  -0.00   0.04    -0.00  -0.00  -0.03
  15   1     0.00   0.01   0.00     0.02   0.04   0.00    -0.01  -0.02  -0.00
  16   1     0.00   0.01   0.00     0.01   0.02   0.01    -0.01  -0.02  -0.01
  17   6    -0.01  -0.02  -0.00    -0.03  -0.06  -0.01     0.02   0.05   0.00
  18   1    -0.00  -0.00  -0.00    -0.01  -0.02  -0.00     0.01   0.02   0.00
  19   1    -0.00  -0.00   0.00    -0.01  -0.01   0.00     0.01   0.01  -0.00
  20   1    -0.00  -0.01   0.00    -0.01  -0.02   0.00     0.01   0.02  -0.00
  21   1     0.00  -0.00  -0.00     0.01   0.00  -0.01    -0.00  -0.00  -0.00
  22   6    -0.04   0.06   0.05    -0.02  -0.02  -0.05    -0.00   0.02   0.01
  23   8    -0.05   0.07   0.05    -0.05  -0.04  -0.05     0.01  -0.01   0.02
  24   7     0.07  -0.12  -0.05     0.08   0.08   0.02    -0.02   0.00  -0.02
  25   1    -0.05   0.05   0.02     0.05  -0.01   0.03    -0.02   0.02  -0.01
  26   1     0.03  -0.06  -0.02     0.01   0.09  -0.00     0.04  -0.06  -0.02
  27   7    -0.03   0.05  -0.02    -0.01  -0.06   0.06     0.02   0.03  -0.00
  28   1    -0.34   0.36   0.19    -0.00  -0.08   0.03     0.02  -0.00  -0.01
  29   1     0.51  -0.53  -0.26    -0.02   0.08   0.08     0.01  -0.00  -0.01
  30   6    -0.03  -0.03  -0.02    -0.19  -0.13  -0.10    -0.01   0.09  -0.01
  31   8    -0.02  -0.06   0.02    -0.08  -0.31   0.05     0.09  -0.03   0.16
  32   7     0.05   0.01   0.03     0.24   0.05   0.18    -0.02   0.12  -0.05
  33   1     0.07   0.04  -0.03     0.28   0.23  -0.06     0.03  -0.02  -0.05
  34   1     0.01  -0.02   0.07     0.04  -0.07   0.36     0.19  -0.07  -0.23
  35   7    -0.03   0.05  -0.04    -0.08   0.28  -0.20    -0.16  -0.03   0.04
  36   1    -0.02   0.02   0.00    -0.06   0.13  -0.14    -0.08  -0.10   0.25
[...]
  44   1     0.01  -0.01   0.01    -0.09   0.05  -0.08     0.02  -0.01   0.02
  45   1    -0.01   0.15  -0.04     0.04  -0.87   0.24    -0.01   0.19  -0.05
  46   6     0.00  -0.00   0.01    -0.01   0.00  -0.02     0.00   0.00   0.00
  47   8    -0.00   0.00  -0.00     0.01  -0.00   0.01    -0.00  -0.00  -0.00
  48   7     0.00   0.04  -0.01     0.01   0.04  -0.01    -0.00  -0.02   0.00
  49   1    -0.01  -0.14   0.06    -0.01  -0.16   0.07     0.00   0.07  -0.03
  50   1    -0.01   0.00  -0.01    -0.01   0.00  -0.01     0.00  -0.00   0.01
  51   7    -0.00  -0.00  -0.00     0.00  -0.00   0.00    -0.00  -0.00  -0.00
  52   1     0.00   0.00  -0.00     0.00  -0.00   0.01    -0.00   0.00  -0.00
  53   1     0.00   0.00   0.00    -0.01  -0.01  -0.01     0.00   0.00   0.00
                    142                    143                    144
                        a                      a                      a 
 Frequencies --  3346.4301              3473.0090              3492.4673
 Red. masses --     1.7180                 1.4996                 1.4555
 Frc consts  --     0.0000                 0.0000                 0.0000
 IR Inten    --   776.3403                77.4071                24.5363
 Raman Activ --     0.0000                 0.0000                 0.0000
 Depolar     --     0.0000                 0.0000                 0.0000
 Atom AN      X      Y      Z        X      Y      Z        X      Y      Z
   1   8    -0.00  -0.00  -0.00     0.00   0.00  -0.00    -0.00  -0.00  -0.00
   2   6    -0.00  -0.00   0.00    -0.00  -0.00   0.00    -0.00   0.00  -0.00
   3   1     0.00   0.00   0.00     0.00   0.00   0.00    -0.00  -0.00  -0.00
   4   1    -0.00   0.00   0.00     0.00  -0.00  -0.00     0.00  -0.00   0.00
   5   6     0.00   0.00   0.00     0.00   0.00   0.00    -0.00  -0.00   0.00
   6   1    -0.00  -0.00  -0.00    -0.00  -0.00  -0.00     0.00   0.00   0.00
   7   1    -0.00  -0.00  -0.00     0.00  -0.00   0.00    -0.00  -0.00   0.00
   8   7     0.00   0.00  -0.00     0.00  -0.00   0.00    -0.00   0.00   0.00
   9   6     0.00   0.00   0.00     0.00   0.00   0.00    -0.00  -0.00   0.00
  10   1    -0.00  -0.01  -0.00    -0.00  -0.00  -0.00    -0.00   0.00   0.00
  11   1    -0.00   0.00   0.00    -0.00   0.00   0.00    -0.00   0.00   0.00
  12   1    -0.00  -0.00   0.00    -0.00  -0.00   0.00     0.00   0.00  -0.00
  13   6     0.00   0.00   0.00     0.00   0.00   0.00    -0.00  -0.00  -0.00
  14   1    -0.00  -0.01  -0.00    -0.00  -0.00  -0.00     0.00   0.00   0.00
  15   1     0.00   0.00   0.00     0.00   0.00   0.00    -0.00   0.00  -0.00
  16   1    -0.00   0.00   0.00    -0.00   0.00   0.00    -0.00   0.00   0.00
  17   6    -0.00  -0.00  -0.00    -0.00  -0.00  -0.00     0.00  -0.00   0.00
  18   1     0.00  -0.00   0.00     0.00   0.00   0.00    -0.00  -0.00  -0.00
  19   1     0.00  -0.00   0.00    -0.00  -0.00   0.00     0.00   0.00  -0.00
  20   1    -0.00   0.00   0.00    -0.00   0.00   0.00    -0.00   0.00   0.00
  21   1     0.00   0.00   0.00     0.00  -0.00   0.00     0.01   0.01   0.01
  22   6    -0.01  -0.00  -0.02    -0.00   0.00  -0.00    -0.00  -0.00   0.00
  23   8     0.00   0.00   0.01     0.00  -0.00   0.00     0.00   0.00   0.00
  24   7    -0.02  -0.02   0.01    -0.00  -0.00   0.00     0.00   0.00  -0.00
  25   1     0.10   0.09  -0.00     0.01   0.01   0.00    -0.00  -0.00   0.00
  26   1    -0.01  -0.00  -0.02    -0.00  -0.00  -0.00     0.00   0.00   0.00
  27   7     0.00  -0.00   0.00    -0.00  -0.00   0.00    -0.00  -0.00   0.00
  28   1     0.01   0.00   0.01     0.00   0.00   0.01     0.00   0.00   0.00
  29   1     0.00   0.01  -0.02     0.00   0.01  -0.01     0.00   0.00  -0.00
  30   6    -0.01  -0.00  -0.01    -0.00  -0.01   0.00     0.00  -0.00   0.00
  31   8     0.00   0.00   0.00     0.00   0.00   0.00    -0.00  -0.00  -0.00
  32   7     0.01   0.01   0.00    -0.07  -0.18   0.04     0.00   0.00  -0.00
  33   1     0.01  -0.00   0.02    -0.29   0.05  -0.38     0.00   0.00   0.00
  34   1    -0.05  -0.06  -0.02     0.54   0.61   0.23    -0.00  -0.00  -0.00
  35   7    -0.09  -0.15  -0.10    -0.01  -0.00  -0.01    -0.00  -0.00   0.00
  36   1     0.33   0.69   0.29     0.03   0.05   0.02     0.00   0.00   0.00
  37   1     0.00  -0.13   0.08     0.00  -0.04   0.02    -0.00   0.01  -0.00
  38   6    -0.00  -0.00   0.00    -0.00   0.00   0.00     0.00  -0.00   0.00
  39   8    -0.00  -0.00  -0.00    -0.00  -0.00  -0.00    -0.00   0.00  -0.00
  40   7    -0.09  -0.06   0.02    -0.01  -0.00   0.00    -0.00   0.00  -0.00
  41   1     0.40   0.22  -0.04     0.03   0.02  -0.00    -0.00  -0.00  -0.00
  42   1    -0.06   0.02  -0.04    -0.01   0.00  -0.00     0.00  -0.00   0.00
  43   7     0.00   0.02  -0.00    -0.00   0.00  -0.00     0.00   0.00   0.00
  44   1    -0.01   0.00  -0.01     0.00  -0.00   0.00    -0.01   0.00  -0.00
  45   1     0.00  -0.07   0.02    -0.00  -0.00   0.00     0.00  -0.01   0.00
  46   6    -0.00  -0.00   0.00     0.00  -0.00   0.00    -0.00  -0.00   0.00
  47   8     0.00   0.00  -0.00    -0.00   0.00  -0.00    -0.00   0.00  -0.00
  48   7     0.00   0.01  -0.00     0.00   0.00  -0.00    -0.00   0.01  -0.01
  49   1    -0.00  -0.03   0.02    -0.00  -0.00   0.00    -0.00  -0.01   0.00
  50   1    -0.00   0.00  -0.00    -0.00   0.00  -0.00     0.02  -0.01   0.03
  51   7     0.00   0.00   0.00    -0.00  -0.00  -0.00    -0.04  -0.17   0.07
  52   1     0.00  -0.00   0.00    -0.00   0.00  -0.00    -0.30   0.12  -0.55
  53   1    -0.00  -0.00  -0.00     0.00   0.00   0.00     0.47   0.50   0.29
                    145                    146                    147
                        a                      a                      a 
 Frequencies --  3502.7144              3520.3851              3521.3600
 Red. masses --     1.4452                 1.9164                 1.9337
 Frc consts  --     0.0000                 0.0000                 0.0000
 IR Inten    --    21.8202                10.2822                24.8151
 Raman Activ --     0.0000                 0.0000                 0.0000
 Depolar     --     0.0000                 0.0000                 0.0000
 Atom AN      X      Y      Z        X      Y      Z        X      Y      Z
   1   8     0.00   0.00   0.00     0.00   0.00   0.00    -0.00  -0.00  -0.00
   2   6    -0.00  -0.00  -0.00     0.00  -0.00  -0.00     0.00  -0.00   0.00
   3   1     0.00   0.00   0.00    -0.00  -0.00   0.00    -0.00  -0.00  -0.00
   4   1     0.00  -0.00  -0.00    -0.00   0.00  -0.00    -0.00   0.00   0.00
   5   6     0.00   0.00   0.00     0.00  -0.00  -0.00     0.00   0.00   0.00
   6   1    -0.00  -0.00  -0.00     0.00   0.00   0.00    -0.00  -0.00  -0.00
   7   1     0.00  -0.00   0.00    -0.00  -0.00  -0.00    -0.00   0.00  -0.00
   8   7    -0.00  -0.00   0.00     0.00   0.00  -0.00    -0.00  -0.00  -0.00
   9   6     0.00   0.00   0.00     0.00   0.00   0.00     0.00   0.00   0.00
  10   1    -0.00  -0.00  -0.00    -0.00  -0.00   0.00    -0.00  -0.00  -0.00
  11   1    -0.00   0.00   0.00     0.00  -0.00  -0.00     0.00   0.00   0.00
  12   1    -0.00  -0.00  -0.00     0.00   0.00  -0.00     0.00   0.00  -0.00
  13   6     0.00   0.00   0.00    -0.00   0.00   0.00     0.00   0.00   0.00
  14   1    -0.00  -0.00  -0.00     0.00  -0.00   0.00    -0.00  -0.00  -0.00
  15   1     0.00  -0.00   0.00    -0.00  -0.00  -0.00     0.00   0.00   0.00
  16   1    -0.00   0.00   0.00     0.00  -0.00  -0.00     0.00  -0.00  -0.00
  17   6    -0.00  -0.00  -0.00    -0.00  -0.00  -0.00     0.00   0.00   0.00
  18   1     0.00   0.00   0.00     0.00  -0.00   0.00    -0.00   0.00  -0.00
  19   1     0.00  -0.00   0.00     0.00  -0.00  -0.00     0.00   0.00   0.00
  20   1     0.00   0.00  -0.00    -0.00  -0.00   0.00     0.00  -0.00  -0.00
  21   1    -0.00  -0.00  -0.00    -0.00  -0.00  -0.00     0.00   0.00   0.00
  22   6    -0.00  -0.00  -0.00    -0.00   0.00  -0.00     0.00   0.00   0.00
  23   8     0.00   0.00   0.00     0.00  -0.00   0.00    -0.00  -0.00  -0.00
  24   7     0.01   0.01   0.01    -0.00  -0.00  -0.00    -0.00   0.00  -0.00
  25   1    -0.01  -0.01   0.00     0.00   0.00   0.00    -0.00  -0.00   0.00
  26   1    -0.02  -0.01  -0.04     0.00   0.00   0.01     0.01   0.00   0.01
  27   7    -0.14  -0.12  -0.01     0.00   0.00   0.00    -0.00  -0.00  -0.00
  28   1     0.41   0.08   0.58    -0.01  -0.00  -0.01     0.01   0.00   0.01
  29   1     0.11   0.37  -0.56    -0.00  -0.00   0.01     0.00   0.01  -0.01
  30   6    -0.00  -0.00  -0.00     0.00   0.00  -0.00     0.00   0.01  -0.00
  31   8     0.00   0.00   0.00     0.00  -0.00  -0.00     0.00  -0.00   0.00
  32   7     0.00   0.00  -0.00    -0.00  -0.00  -0.00    -0.01   0.00  -0.01
  33   1     0.01  -0.00   0.01     0.00  -0.00   0.00     0.03  -0.01   0.05
  34   1    -0.01  -0.01  -0.00    -0.00  -0.00   0.00    -0.00  -0.00  -0.00
  35   7     0.00  -0.00   0.00    -0.00   0.01  -0.01     0.01   0.23  -0.13
  36   1    -0.00  -0.01  -0.00    -0.00   0.00  -0.00    -0.06  -0.11  -0.07
  37   1    -0.00   0.02  -0.01     0.00  -0.04   0.03     0.03  -0.76   0.57
  38   6    -0.00  -0.00  -0.00    -0.01  -0.00  -0.00     0.00  -0.00   0.00
  39   8     0.00   0.00   0.00     0.00   0.00   0.00    -0.00   0.00  -0.00
  40   7    -0.00   0.00  -0.00    -0.20   0.05  -0.15     0.01  -0.00   0.01
  41   1    -0.01  -0.01   0.00     0.10   0.06  -0.03    -0.01  -0.01   0.00
  42   1     0.01  -0.00   0.01     0.68  -0.23   0.60    -0.03   0.01  -0.03
  43   7     0.00  -0.00   0.00     0.03  -0.02   0.03    -0.00   0.00  -0.00
  44   1    -0.00   0.00  -0.00    -0.13   0.05  -0.11     0.00  -0.00   0.00
  45   1     0.00  -0.00   0.00     0.00   0.02  -0.00     0.00  -0.01   0.00
  46   6    -0.00  -0.00  -0.00     0.00  -0.00   0.00     0.00   0.00  -0.00
  47   8     0.00   0.00   0.00    -0.00   0.00  -0.00    -0.00  -0.00   0.00
  48   7     0.00   0.00   0.00     0.00  -0.00   0.00    -0.00   0.00  -0.00
  49   1    -0.00  -0.00   0.00    -0.00  -0.00   0.00     0.00  -0.00   0.00
  50   1    -0.00   0.00  -0.00    -0.01   0.00  -0.01     0.00  -0.00   0.00
  51   7     0.00   0.00  -0.00    -0.00   0.00  -0.00    -0.00  -0.00   0.00
  52   1     0.00  -0.00   0.00     0.00  -0.00   0.00    -0.00   0.00  -0.00
  53   1    -0.00  -0.00  -0.00    -0.00  -0.00  -0.00     0.00   0.00   0.00
                    148                    149                    150
                        a                      a                      a 
 Frequencies --  3535.4693              3535.8323              3536.6730
 Red. masses --     1.9065                 1.8946                 1.9030
 Frc consts  --     0.0000                 0.0000                 0.0000
 IR Inten    --    24.6154                 1.1378                21.2348
 Raman Activ --     0.0000                 0.0000                 0.0000
 Depolar     --     0.0000                 0.0000                 0.0000
 Atom AN      X      Y      Z        X      Y      Z        X      Y      Z
   1   8     0.00   0.00   0.00     0.00   0.00   0.00     0.00   0.00   0.00
   2   6    -0.00   0.00  -0.00    -0.00  -0.00  -0.00    -0.00   0.00  -0.00
   3   1     0.00   0.00   0.00     0.00   0.00   0.00     0.00   0.00   0.00
   4   1    -0.00  -0.00  -0.00    -0.00  -0.00  -0.00     0.00  -0.00  -0.00
   5   6     0.00   0.00   0.00     0.00   0.00   0.00    -0.00  -0.00   0.00
   6   1    -0.00  -0.00  -0.00    -0.00  -0.00  -0.00    -0.00  -0.00  -0.00
   7   1     0.00   0.00   0.00     0.00   0.00   0.00     0.00   0.00   0.00
   8   7     0.00   0.00   0.00     0.00  -0.00  -0.00     0.00   0.00   0.00
   9   6    -0.00  -0.00  -0.00     0.00   0.00   0.00    -0.00  -0.00  -0.00
  10   1     0.00   0.00  -0.00    -0.00  -0.00  -0.00     0.00   0.00   0.00
  11   1    -0.00   0.00   0.00    -0.00   0.00   0.00     0.00  -0.00  -0.00
  12   1     0.00  -0.00   0.00     0.00   0.00  -0.00     0.00  -0.00   0.00
  13   6    -0.00  -0.00  -0.00     0.00   0.00   0.00    -0.00  -0.00  -0.00
  14   1    -0.00   0.00  -0.00    -0.00  -0.00  -0.00    -0.00   0.00   0.00
  15   1     0.00   0.00   0.00     0.00   0.00   0.00     0.00   0.00   0.00
  16   1     0.00   0.00   0.00     0.00  -0.00  -0.00     0.00  -0.00  -0.00
  17   6    -0.00   0.00  -0.00    -0.00   0.00   0.00    -0.00   0.00   0.00
  18   1    -0.00   0.00  -0.00    -0.00   0.00   0.00     0.00  -0.00   0.00
  19   1     0.00  -0.00   0.00    -0.00   0.00  -0.00    -0.00   0.00  -0.00
  20   1    -0.00   0.00   0.00     0.00   0.00  -0.00    -0.00   0.00   0.00
  21   1    -0.00  -0.00  -0.00    -0.00  -0.00  -0.00     0.00  -0.00  -0.00
  22   6    -0.00  -0.00  -0.00     0.00   0.00   0.00     0.01   0.01   0.00
  23   8     0.00   0.00   0.00    -0.00  -0.00  -0.00    -0.00  -0.00  -0.00
  24   7    -0.03  -0.01  -0.04     0.02   0.01   0.03     0.14   0.06   0.21
  25   1     0.01   0.01  -0.00    -0.01  -0.01   0.00    -0.06  -0.05   0.02
  26   1     0.09   0.03   0.15    -0.06  -0.02  -0.10    -0.46  -0.17  -0.79
  27   7    -0.00  -0.00   0.00    -0.00   0.00  -0.00     0.00   0.01  -0.02
  28   1    -0.00  -0.00  -0.00     0.00   0.00   0.00     0.01   0.00   0.01
  29   1     0.00   0.01  -0.01    -0.00  -0.01   0.01    -0.01  -0.05   0.07
  30   6     0.00   0.00  -0.00     0.00  -0.00  -0.00    -0.00   0.00  -0.00
  31   8    -0.00  -0.00   0.00    -0.00   0.00   0.00     0.00   0.00  -0.00
  32   7    -0.00  -0.00  -0.00    -0.00  -0.00  -0.00     0.00   0.00  -0.00
  33   1     0.00  -0.00   0.00     0.00  -0.00   0.00     0.00  -0.00   0.00
  34   1     0.00   0.00   0.00     0.00   0.00   0.00    -0.00  -0.00  -0.00
  35   7     0.00  -0.00   0.00     0.00  -0.00   0.00     0.00   0.00  -0.00
  36   1    -0.00  -0.00   0.00    -0.00  -0.00  -0.00    -0.00  -0.00  -0.00
  37   1    -0.00   0.00  -0.00    -0.00   0.00  -0.00     0.00  -0.01   0.01
  38   6     0.00  -0.01   0.01     0.00  -0.00   0.00     0.00  -0.00   0.00
  39   8    -0.00   0.00  -0.00    -0.00   0.00  -0.00    -0.00   0.00  -0.00
  40   7     0.03  -0.01   0.02     0.02  -0.00   0.01     0.00   0.00   0.00
  41   1    -0.02  -0.01   0.01    -0.01  -0.00   0.00    -0.01  -0.00   0.00
  42   1    -0.12   0.04  -0.10    -0.06   0.02  -0.05    -0.01   0.00  -0.01
  43   7     0.16  -0.08   0.13     0.09  -0.05   0.08     0.02  -0.01   0.02
  44   1    -0.60   0.24  -0.49    -0.34   0.14  -0.28    -0.07   0.03  -0.06
  45   1     0.01   0.09  -0.01     0.00   0.05  -0.01     0.00   0.01  -0.00
  46   6     0.00  -0.00   0.00    -0.00   0.01  -0.00     0.00  -0.00   0.00
  47   8    -0.00   0.00  -0.00     0.00  -0.00   0.00    -0.00   0.00  -0.00
  48   7     0.06  -0.03   0.10    -0.12   0.06  -0.18     0.03  -0.01   0.04
  49   1     0.01   0.03  -0.01    -0.01  -0.05   0.01     0.00   0.02  -0.00
  50   1    -0.24   0.09  -0.36     0.44  -0.17   0.68    -0.10   0.04  -0.15
  51   7    -0.01  -0.01  -0.01     0.02   0.01   0.02    -0.01  -0.00  -0.01
  52   1     0.02  -0.01   0.04    -0.02   0.01  -0.04     0.01  -0.00   0.01
  53   1     0.03   0.03   0.02    -0.05  -0.06  -0.03     0.01   0.01   0.01
                    151                    152                    153
                        a                      a                      a 
 Frequencies --  3555.3796              3557.8449              3570.1244
 Red. masses --     2.1392                 2.1748                 2.1878
 Frc consts  --     0.0000                 0.0000                 0.0000
 IR Inten    --    26.8129                19.5427                15.8859
 Raman Activ --     0.0000                 0.0000                 0.0000
 Depolar     --     0.0000                 0.0000                 0.0000
 Atom AN      X      Y      Z        X      Y      Z        X      Y      Z
   1   8     0.00   0.00   0.00    -0.00  -0.00  -0.00    -0.00  -0.00  -0.00
   2   6    -0.00  -0.00  -0.00    -0.00   0.00  -0.00    -0.00   0.00  -0.00
   3   1    -0.00  -0.00   0.00    -0.00  -0.00  -0.00    -0.00  -0.00   0.00
   4   1     0.00  -0.00  -0.00     0.00  -0.00   0.00     0.00  -0.00  -0.00
   5   6    -0.00  -0.00  -0.00     0.00   0.00   0.00    -0.00  -0.00  -0.00
   6   1     0.00   0.00  -0.00    -0.00  -0.00   0.00     0.00   0.00  -0.00
   7   1     0.00  -0.00   0.00    -0.00  -0.00  -0.00     0.00  -0.00   0.00
   8   7     0.00   0.00  -0.00    -0.00   0.00   0.00    -0.00   0.00  -0.00
   9   6    -0.00  -0.00  -0.00    -0.00  -0.00   0.00    -0.00  -0.00  -0.00
  10   1    -0.00   0.00  -0.00    -0.00  -0.00   0.00     0.00   0.00   0.00
  11   1    -0.00  -0.00  -0.00     0.00   0.00  -0.00    -0.00  -0.00   0.00
  12   1    -0.00  -0.00   0.00     0.00   0.00   0.00    -0.00  -0.00  -0.00
  13   6    -0.00  -0.00  -0.00     0.00  -0.00  -0.00    -0.00  -0.00  -0.00
  14   1     0.00   0.00   0.00     0.00   0.00   0.00     0.00   0.00   0.00
  15   1    -0.00  -0.00  -0.00    -0.00   0.00  -0.00    -0.00  -0.00  -0.00
  16   1    -0.00  -0.00  -0.00    -0.00   0.00   0.00    -0.00  -0.00   0.00
  17   6     0.00  -0.00  -0.00     0.00  -0.00   0.00     0.00   0.00  -0.00
  18   1     0.00  -0.00   0.00    -0.00  -0.00  -0.00    -0.00  -0.00   0.00
  19   1    -0.00  -0.00  -0.00     0.00   0.00  -0.00    -0.00  -0.00   0.00
  20   1    -0.00  -0.00   0.00    -0.00  -0.00  -0.00    -0.00  -0.00   0.00
  21   1    -0.00  -0.00  -0.00     0.00   0.00   0.00     0.00   0.00   0.00
  22   6    -0.00   0.00  -0.00    -0.00  -0.00  -0.00    -0.00   0.00  -0.01
  23   8     0.00  -0.00   0.00    -0.00  -0.00   0.00     0.00  -0.00   0.00
  24   7    -0.00  -0.00   0.00    -0.00  -0.00  -0.00    -0.01  -0.00  -0.01
  25   1     0.00   0.00   0.00     0.00   0.00  -0.00     0.01   0.01  -0.00
  26   1    -0.00  -0.00  -0.00     0.00   0.00   0.00     0.03   0.01   0.06
  27   7     0.00  -0.00   0.00     0.00  -0.00   0.00    -0.07   0.08  -0.28
  28   1    -0.01  -0.00  -0.01    -0.00  -0.00  -0.00     0.39   0.09   0.52
  29   1     0.00   0.00  -0.00     0.00   0.00  -0.00    -0.13  -0.39   0.55
  30   6    -0.01  -0.00  -0.01    -0.00  -0.00  -0.00    -0.00  -0.00  -0.00
  31   8     0.00   0.00   0.00     0.00   0.00  -0.00    -0.00  -0.00  -0.00
  32   7    -0.20  -0.06  -0.21    -0.00  -0.00  -0.00    -0.00  -0.00  -0.00
  33   1     0.48  -0.12   0.68     0.00  -0.00   0.00     0.00  -0.00   0.01
  34   1     0.29   0.34   0.11     0.00   0.00   0.00     0.01   0.01   0.00
  35   7    -0.00  -0.02   0.01    -0.00  -0.00   0.00    -0.00  -0.00  -0.00
  36   1     0.01   0.02   0.01     0.00   0.00   0.00     0.00   0.01   0.00
  37   1    -0.00   0.04  -0.03    -0.00   0.00  -0.00    -0.00   0.00  -0.00
  38   6    -0.00   0.00   0.00    -0.00   0.00  -0.00    -0.00   0.00  -0.00
  39   8     0.00  -0.00  -0.00     0.00  -0.00   0.00     0.00  -0.00   0.00
  40   7    -0.00  -0.00   0.00    -0.00   0.00  -0.00    -0.00  -0.00  -0.00
  41   1     0.01   0.01  -0.00     0.00   0.00  -0.00     0.01   0.00  -0.00
  42   1    -0.00   0.00  -0.00     0.00  -0.00   0.00     0.00  -0.00   0.00
  43   7    -0.00   0.00  -0.00    -0.00   0.00  -0.00    -0.00   0.00  -0.00
  44   1     0.00  -0.00   0.00     0.01  -0.00   0.01     0.00  -0.00   0.00
  45   1    -0.00  -0.00   0.00     0.00  -0.01   0.00    -0.00  -0.00   0.00
  46   6     0.00  -0.00   0.00    -0.01  -0.00  -0.01    -0.00  -0.00  -0.00
  47   8     0.00   0.00  -0.00     0.00   0.00   0.00     0.00   0.00   0.00
  48   7     0.00   0.00   0.00    -0.01   0.01  -0.02    -0.00   0.00  -0.00
  49   1    -0.00  -0.00   0.00    -0.00  -0.01   0.00    -0.00  -0.00   0.00
  50   1    -0.00   0.00  -0.00     0.06  -0.02   0.09     0.00  -0.00   0.00
  51   7     0.00   0.00   0.00    -0.18  -0.07  -0.22    -0.00  -0.00  -0.00
  52   1    -0.00   0.00  -0.00     0.32  -0.16   0.63     0.00  -0.00   0.00
  53   1    -0.00  -0.00  -0.00     0.38   0.42   0.22     0.00   0.00   0.00
