      -----------------------------------------------------------      
     |                   =====================                   |     
     |                           x T B                           |     
     |                   =====================                   |     
     |                         S. Grimme                         |     
     |          Mulliken Center for Theoretical Chemistry        |     
     |                    University of Bonn                     |     
      -----------------------------------------------------------      

   * xtb version 6.6.1 (unknown-commit) compiled by '@Linux' on 12/27/2023

   xtb is free software: you can redistribute it and/or modify it under
   the terms of the GNU Lesser General Public License as published by
   the Free Software Foundation, either version 3 of the License, or
   (at your option) any later version.
   
   xtb is distributed in the hope that it will be useful,
   but WITHOUT ANY WARRANTY; without even the implied warranty of
   MERCHANTABILITY or FITNESS FOR A PARTICULAR PURPOSE.  See the
   GNU Lesser General Public License for more details.
   
   Cite this work as:
   * C. Bannwarth, E. Caldeweyher, S. Ehlert, A. Hansen, P. Pracht,
     J. Seibert, S. Spicher, S. Grimme, WIREs Comput. Mol. Sci., 2020, 11,
     e01493. DOI: 10.1002/wcms.1493
   
   for GFN2-xTB:
   * C. Bannwarth, S. Ehlert and S. Grimme., J. Chem. Theory Comput., 2019,
     15, 1652-1671. DOI: 10.1021/acs.jctc.8b01176
   for GFN1-xTB:
   * S. Grimme, C. Bannwarth, P. Shushkov, J. Chem. Theory Comput., 2017,
     13, 1989-2009. DOI: 10.1021/acs.jctc.7b00118
   for GFN0-xTB:
   * P. Pracht, E. Caldeweyher, S. Ehlert, S. Grimme, ChemRxiv, 2019, preprint.
     DOI: 10.26434/chemrxiv.8326202.v1
   for GFN-FF:
   * S. Spicher and S. Grimme, Angew. Chem. Int. Ed., 2020, 59, 15665-15673.
     DOI: 10.1002/anie.202004239
   
   for ALPB and GBSA implicit solvation:
   * S. Ehlert, M. Stahn, S. Spicher, S. Grimme, J. Chem. Theory Comput.,
     2021, 17, 4250-4261. DOI: 10.1021/acs.jctc.1c00471
   
   for DFT-D4:
   * E. Caldeweyher, C. Bannwarth and S. Grimme, J. Chem. Phys., 2017,
     147, 034112. DOI: 10.1063/1.4993215
   * E. Caldeweyher, S. Ehlert, A. Hansen, H. Neugebauer, S. Spicher,
     C. Bannwarth and S. Grimme, J. Chem. Phys., 2019, 150, 154122.
     DOI: 10.1063/1.5090222
   * E. Caldeweyher, J.-M. Mewes, S. Ehlert and S. Grimme, Phys. Chem. Chem. Phys.
     2020, 22, 8499-8512. DOI: 10.1039/D0CP00502A
   
   for sTDA-xTB:
   * S. Grimme and C. Bannwarth, J. Chem. Phys., 2016, 145, 054103.
     DOI: 10.1063/1.4959605
   
   in the mass-spec context:
   * V. Asgeirsson, C. Bauer and S. Grimme, Chem. Sci., 2017, 8, 4879.
     DOI: 10.1039/c7sc00601b
   * J. Koopman and S. Grimme, ACS Omega 2019, 4, 12, 15120-15133.
     DOI: 10.1021/acsomega.9b02011
   
   for metadynamics refer to:
   * S. Grimme, J. Chem. Theory Comput., 2019, 155, 2847-2862
     DOI: 10.1021/acs.jctc.9b00143
   
   for SPH calculations refer to:
   * S. Spicher and S. Grimme, J. Chem. Theory Comput., 2021, 17, 1701-1714
     DOI: 10.1021/acs.jctc.0c01306
   
   with help from (in alphabetical order)
   P. Atkinson, C. Bannwarth, F. Bohle, G. Brandenburg, E. Caldeweyher
   M. Checinski, S. Dohm, S. Ehlert, S. Ehrlich, I. Gerasimov, C. Hölzer
   A. Katbashev, J. Koopman, C. Lavigne, S. Lehtola, F. März, M. Müller,
   F. Musil, H. Neugebauer, J. Pisarek, C. Plett, P. Pracht, F. Pultar,
   J. Seibert, P. Shushkov, S. Spicher, M. Stahn, M. Steiner, T. Strunk,
   J. Stückrath, T. Rose, and J. Unsleber
   
 * started run on 2024/01/10 at 18:29:49.380     

           -------------------------------------------------
          |                Calculation Setup                |
           -------------------------------------------------

          program call               : xtb struc.xyz --gfn2 --hess
          hostname                   : swaroop
          coordinate file            : struc.xyz
          omp threads                :                     1

   ID    Z sym.   atoms
    1    8 O      1, 23, 31, 39, 47
    2    6 C      2, 5, 9, 13, 17, 22, 30, 38, 46
    3    1 H      3, 4, 6, 7, 10-12, 14-16, 18-21, 25, 26, 28, 29, 33, 34,
                  36, 37, 41, 42, 44, 45, 49, 50, 52, 53
    4    7 N      8, 24, 27, 32, 35, 40, 43, 48, 51

molecular fragmentation (1/2 indicates fragments):
11111111111111111111122222222222222222222222222222222
# atoms in fragment 1/2:    21    32
 fragment masses (1/2) :      104.17      240.22
CMA distance (Bohr)    :   7.777
constraining FC (au)   :  0.0500

           -------------------------------------------------
          |                 G F N 2 - x T B                 |
           -------------------------------------------------

        Reference                      10.1021/acs.jctc.8b01176
      * Hamiltonian:
        H0-scaling (s, p, d)           1.850000    2.230000    2.230000
        zeta-weighting                 0.500000
      * Dispersion:
        s8                             2.700000
        a1                             0.520000
        a2                             5.000000
        s9                             5.000000
      * Repulsion:
        kExp                           1.500000    1.000000
        rExp                           1.000000
      * Coulomb:
        alpha                          2.000000
        third order                    shell-resolved
        anisotropic                    true
        a3                             3.000000
        a5                             4.000000
        cn-shift                       1.200000
        cn-exp                         4.000000
        max-rad                        5.000000


          ...................................................
          :                      SETUP                      :
          :.................................................:
          :  # basis functions                 122          :
          :  # atomic orbitals                 122          :
          :  # shells                           76          :
          :  # electrons                       140          :
          :  max. iterations                   250          :
          :  Hamiltonian                  GFN2-xTB          :
          :  restarted?                      false          :
          :  GBSA solvation                  false          :
          :  PC potential                    false          :
          :  electronic temp.          300.0000000     K    :
          :  accuracy                    1.0000000          :
          :  -> integral cutoff          0.2500000E+02      :
          :  -> integral neglect         0.1000000E-07      :
          :  -> SCF convergence          0.1000000E-05 Eh   :
          :  -> wf. convergence          0.1000000E-03 e    :
          :  Broyden damping             0.4000000          :
          ...................................................

 iter      E             dE          RMSdq      gap      omega  full diag
   1    -81.5482977 -0.815483E+02  0.436E+00    5.04       0.0  T
   2    -81.8394446 -0.291147E+00  0.239E+00    5.63       1.0  T
   3    -81.8451108 -0.566626E-02  0.117E+00    5.28       1.0  T
   4    -81.8464830 -0.137221E-02  0.237E-01    5.28       1.0  T
   5    -81.8473766 -0.893559E-03  0.915E-02    5.19       1.0  T
   6    -81.8474000 -0.234321E-04  0.260E-02    5.19       1.0  T
   7    -81.8474053 -0.528216E-05  0.767E-03    5.19       1.8  T
   8    -81.8474056 -0.246043E-06  0.312E-03    5.18       4.4  T
   9    -81.8474056 -0.497032E-07  0.945E-04    5.18      14.5  T
  10    -81.8474056 -0.533502E-08  0.240E-04    5.18      57.2  T

   *** convergence criteria satisfied after 10 iterations ***

         #    Occupation            Energy/Eh            Energy/eV
      -------------------------------------------------------------
         1        2.0000           -0.8085243             -22.0011
       ...           ...                  ...                  ...
        64        2.0000           -0.4995706             -13.5940
        65        2.0000           -0.4942110             -13.4482
        66        2.0000           -0.4912157             -13.3667
        67        2.0000           -0.4882844             -13.2869
        68        2.0000           -0.4878962             -13.2763
        69        2.0000           -0.4831314             -13.1467
        70        2.0000           -0.4780424             -13.0082 (HOMO)
        71                         -0.2875532              -7.8247 (LUMO)
        72                         -0.2736423              -7.4462
        73                         -0.2591946              -7.0530
        74                         -0.2574806              -7.0064
        75                         -0.1562586              -4.2520
       ...                                ...                  ...
       122                          0.5588720              15.2077
      -------------------------------------------------------------
                  HL-Gap            0.1904891 Eh            5.1835 eV
             Fermi-level           -0.3827978 Eh          -10.4165 eV

 SCC (total)                   0 d,  0 h,  0 min,  0.092 sec
 SCC setup                      ...        0 min,  0.000 sec (  0.308%)
 Dispersion                     ...        0 min,  0.001 sec (  0.652%)
 classical contributions        ...        0 min,  0.000 sec (  0.196%)
 integral evaluation            ...        0 min,  0.008 sec (  8.599%)
 iterations                     ...        0 min,  0.055 sec ( 59.985%)
 molecular gradient             ...        0 min,  0.028 sec ( 29.965%)
 printout                       ...        0 min,  0.000 sec (  0.281%)

         :::::::::::::::::::::::::::::::::::::::::::::::::::::
         ::                     SUMMARY                     ::
         :::::::::::::::::::::::::::::::::::::::::::::::::::::
         :: total energy             -80.933288771227 Eh    ::
         :: gradient norm              0.000196323267 Eh/a0 ::
         :: HOMO-LUMO gap              5.183473194544 eV    ::
         ::.................................................::
         :: SCC energy               -81.847405616950 Eh    ::
         :: -> isotropic ES            0.296403442757 Eh    ::
         :: -> anisotropic ES         -0.030437009848 Eh    ::
         :: -> anisotropic XC          0.021175563898 Eh    ::
         :: -> dispersion             -0.045344402273 Eh    ::
         :: repulsion energy           0.912765692523 Eh    ::
         :: add. restraining           0.000000000000 Eh    ::
         :: total charge               1.000000000000 e     ::
         :::::::::::::::::::::::::::::::::::::::::::::::::::::

           ------------------------------------------------- 
          |                Numerical Hessian                |
           ------------------------------------------------- 
step length          :   0.00500
SCC accuracy         :   0.30000
Hessian scale factor :   1.00000
frozen atoms in %    :   0.00000    0
RMS gradient         :   0.00020
estimated CPU  time      0.24 min
estimated wall time      0.24 min

writing file <hessian>.

 projected vibrational frequencies (cm⁻¹)
eigval :       -0.00     0.00     0.00     0.00     0.00     0.00
eigval :       12.38    16.95    24.41    27.20    30.54    35.42
eigval :       38.12    49.83    53.15    62.96    64.91    66.22
eigval :       83.32    87.74    90.45    95.06   104.63   109.05
eigval :      114.73   122.99   138.38   147.75   150.03   169.17
eigval :      190.79   193.49   218.23   245.75   265.74   280.22
eigval :      283.01   309.06   345.24   346.54   356.45   370.95
eigval :      378.15   443.97   448.39   459.68   465.11   466.04
eigval :      469.91   472.31   478.27   478.96   485.22   496.89
eigval :      507.15   525.47   530.71   536.66   540.45   541.31
eigval :      548.60   552.13   585.75   608.72   639.57   666.97
eigval :      672.81   675.95   679.34   701.31   730.62   806.15
eigval :      855.63   947.75   965.97   972.75   976.10   999.39
eigval :     1004.45  1009.26  1010.94  1012.39  1016.91  1018.09
eigval :     1035.77  1042.65  1065.33  1080.07  1091.64  1092.25
eigval :     1099.07  1107.09  1115.81  1129.72  1177.37  1231.53
eigval :     1242.12  1273.11  1309.03  1322.60  1342.22  1354.63
eigval :     1361.84  1364.79  1372.46  1391.39  1403.49  1407.86
eigval :     1420.41  1438.15  1446.30  1451.22  1453.24  1455.70
eigval :     1459.85  1464.86  1465.57  1470.89  1474.84  1479.10
eigval :     1486.61  1487.93  1503.43  1510.26  1520.48  1678.58
eigval :     1692.64  1711.46  1723.89  2892.78  2966.22  2980.29
eigval :     2987.93  3023.66  3032.83  3040.85  3041.80  3042.69
eigval :     3048.47  3049.43  3057.03  3061.66  3188.75  3300.82
eigval :     3373.51  3382.61  3392.37  3491.79  3497.48  3498.44
eigval :     3499.85  3505.26  3522.48  3523.93  3534.03  3557.16
eigval :     3564.02  3564.54  3567.85
           -------------------------------------------------
          |                Property Printout                |
           -------------------------------------------------

    * Orbital Energies and Occupations

         #    Occupation            Energy/Eh            Energy/eV
      -------------------------------------------------------------
         1        2.0000           -0.8085237             -22.0010
       ...           ...                  ...                  ...
        58        2.0000           -0.5259182             -14.3110
        59        2.0000           -0.5198256             -14.1452
        60        2.0000           -0.5187791             -14.1167
        61        2.0000           -0.5090681             -13.8524
        62        2.0000           -0.5039980             -13.7145
        63        2.0000           -0.5024932             -13.6735
        64        2.0000           -0.4995698             -13.5940
        65        2.0000           -0.4942130             -13.4482
        66        2.0000           -0.4912186             -13.3667
        67        2.0000           -0.4882866             -13.2870
        68        2.0000           -0.4878976             -13.2764
        69        2.0000           -0.4831335             -13.1467
        70        2.0000           -0.4780453             -13.0083 (HOMO)
        71                         -0.2875527              -7.8247 (LUMO)
        72                         -0.2736418              -7.4462
        73                         -0.2592001              -7.0532
        74                         -0.2574830              -7.0065
        75                         -0.1562585              -4.2520
        76                         -0.1198138              -3.2603
        77                         -0.0980026              -2.6668
        78                         -0.0930932              -2.5332
        79                         -0.0803766              -2.1872
        80                         -0.0764254              -2.0796
        81                         -0.0651753              -1.7735
       ...                                ...                  ...
       122                          0.5588702              15.2076
      -------------------------------------------------------------
                  HL-Gap            0.1904926 Eh            5.1836 eV
             Fermi-level           -0.3827990 Eh          -10.4165 eV

     #   Z          covCN         q      C6AA      α(0)
     1   8 O        1.654    -0.466    22.173     6.357
     2   6 C        3.673     0.075    19.555     6.338
     3   1 H        0.924     0.051     2.308     2.376
     4   1 H        0.923     0.036     2.500     2.473
     5   6 C        3.775    -0.085    22.145     6.705
     6   1 H        0.924     0.124     1.579     1.965
     7   1 H        0.924     0.122     1.594     1.974
     8   7 N        3.624     0.153    18.651     6.414
     9   6 C        3.721    -0.105    22.618     6.792
    10   1 H        0.924     0.128     1.552     1.948
    11   1 H        0.925     0.085     1.927     2.171
    12   1 H        0.925     0.083     1.945     2.181
    13   6 C        3.741    -0.114    22.761     6.807
    14   1 H        0.925     0.114     1.665     2.018
    15   1 H        0.925     0.125     1.574     1.962
    16   1 H        0.925     0.083     1.946     2.181
    17   6 C        3.720    -0.105    22.635     6.795
    18   1 H        0.925     0.127     1.555     1.950
    19   1 H        0.925     0.083     1.944     2.180
    20   1 H        0.925     0.085     1.924     2.169
    21   1 H        0.803     0.330     0.637     1.254
    22   6 C        2.675     0.342    21.198     7.534
    23   8 O        0.859    -0.531    24.485     6.634
    24   7 N        2.647    -0.320    28.226     7.890
    25   1 H        0.860     0.188     1.171     1.695
    26   1 H        0.860     0.207     1.072     1.622
    27   7 N        2.647    -0.317    28.152     7.880
    28   1 H        0.860     0.191     1.152     1.681
    29   1 H        0.860     0.216     1.027     1.588
    30   6 C        2.675     0.345    21.148     7.525
    31   8 O        0.860    -0.530    24.465     6.632
    32   7 N        2.646    -0.281    27.261     7.754
    33   1 H        0.860     0.207     1.071     1.621
    34   1 H        0.861     0.193     1.142     1.674
    35   7 N        2.646    -0.285    27.359     7.768
    36   1 H        0.861     0.193     1.144     1.676
    37   1 H        0.860     0.211     1.052     1.606
    38   6 C        2.675     0.344    21.151     7.526
    39   8 O        0.860    -0.533    24.532     6.641
    40   7 N        2.645    -0.293    27.565     7.798
    41   1 H        0.860     0.197     1.124     1.661
    42   1 H        0.861     0.181     1.206     1.720
    43   7 N        2.644    -0.310    27.985     7.857
    44   1 H        0.860     0.175     1.240     1.744
    45   1 H        0.860     0.233     0.952     1.528
    46   6 C        2.675     0.342    21.192     7.533
    47   8 O        0.860    -0.528    24.420     6.626
    48   7 N        2.646    -0.302    27.777     7.827
    49   1 H        0.860     0.202     1.097     1.640
    50   1 H        0.860     0.221     1.003     1.569
    51   7 N        2.647    -0.288    27.423     7.777
    52   1 H        0.861     0.197     1.123     1.660
    53   1 H        0.860     0.202     1.094     1.638

 Mol. C6AA /au·bohr⁶  :      21790.768325
 Mol. C8AA /au·bohr⁸  :     454283.857154
 Mol. α(0) /au        :        220.537208


Wiberg/Mayer (AO) data.
largest (>0.10) Wiberg bond orders for each atom

 ---------------------------------------------------------------------------
     #   Z sym  total        # sym  WBO       # sym  WBO       # sym  WBO
 ---------------------------------------------------------------------------
     1   8 O    1.963 --     2 C    1.012    21 H    0.826
     2   6 C    3.964 --     1 O    1.012     5 C    0.993     4 H    0.970
                             3 H    0.967
     3   1 H    0.997 --     2 C    0.967
     4   1 H    0.999 --     2 C    0.970
     5   6 C    3.908 --     2 C    0.993     7 H    0.944     6 H    0.936
                             8 N    0.929
     6   1 H    0.985 --     5 C    0.936
     7   1 H    0.985 --     5 C    0.944
     8   7 N    3.820 --    17 C    0.962     9 C    0.961    13 C    0.953
                             5 C    0.929
     9   6 C    3.929 --    11 H    0.977    12 H    0.975    10 H    0.963
                             8 N    0.961
    10   1 H    0.984 --     9 C    0.963
    11   1 H    0.993 --     9 C    0.977
    12   1 H    0.993 --     9 C    0.975
    13   6 C    3.917 --    16 H    0.978    14 H    0.970    15 H    0.962
                             8 N    0.953
    14   1 H    0.987 --    13 C    0.970
    15   1 H    0.984 --    13 C    0.962
    16   1 H    0.993 --    13 C    0.978
    17   6 C    3.930 --    20 H    0.978    19 H    0.978    18 H    0.962
                             8 N    0.962
    18   1 H    0.984 --    17 C    0.962
    19   1 H    0.993 --    17 C    0.978
    20   1 H    0.993 --    17 C    0.978
    21   1 H    0.891 --     1 O    0.826
    22   6 C    3.959 --    23 O    1.530    27 N    1.221    24 N    1.199
    23   8 O    1.895 --    22 C    1.530    27 N    0.145    24 N    0.136
    24   7 N    3.293 --    22 C    1.199    25 H    0.947    26 H    0.908
                            23 O    0.136
    25   1 H    0.965 --    24 N    0.947
    26   1 H    0.957 --    24 N    0.908
    27   7 N    3.316 --    22 C    1.221    28 H    0.933    29 H    0.911
                            23 O    0.145
    28   1 H    0.963 --    27 N    0.933
    29   1 H    0.953 --    27 N    0.911
    30   6 C    3.959 --    31 O    1.493    32 N    1.229    35 N    1.229
    31   8 O    1.902 --    30 C    1.493    35 N    0.138    32 N    0.137
    32   7 N    3.342 --    30 C    1.229    34 H    0.944    33 H    0.940
                            31 O    0.137
    33   1 H    0.957 --    32 N    0.940
    34   1 H    0.962 --    32 N    0.944
    35   7 N    3.341 --    30 C    1.229    36 H    0.944    37 H    0.936
                            31 O    0.138
    36   1 H    0.963 --    35 N    0.944
    37   1 H    0.955 --    35 N    0.936
    38   6 C    3.959 --    39 O    1.522    43 N    1.229    40 N    1.200
    39   8 O    1.887 --    38 C    1.522    43 N    0.144    40 N    0.138
    40   7 N    3.315 --    38 C    1.200    42 H    0.948    41 H    0.944
                            39 O    0.138
    41   1 H    0.961 --    40 N    0.944
    42   1 H    0.967 --    40 N    0.948
    43   7 N    3.320 --    38 C    1.229    44 H    0.950    45 H    0.888
                            39 O    0.144
    44   1 H    0.969 --    43 N    0.950
    45   1 H    0.946 --    43 N    0.888
    46   6 C    3.960 --    47 O    1.485    48 N    1.239    51 N    1.224
    47   8 O    1.914 --    46 C    1.485    48 N    0.136    51 N    0.134
    48   7 N    3.332 --    46 C    1.239    49 H    0.940    50 H    0.902
                            47 O    0.136
    49   1 H    0.959 --    48 N    0.940
    50   1 H    0.951 --    48 N    0.902
    51   7 N    3.336 --    46 C    1.224    52 H    0.942    53 H    0.942
                            47 O    0.134
    52   1 H    0.961 --    51 N    0.942
    53   1 H    0.959 --    51 N    0.942
 ---------------------------------------------------------------------------

Topologies differ in total number of bonds
Writing topology from bond orders to xtbtopo.mol

molecular dipole:
                 x           y           z       tot (Debye)
 q only:        0.885       0.082      -0.115
   full:        0.868       0.937      -0.338       3.360
molecular quadrupole (traceless):
                xx          xy          yy          xz          yz          zz
 q only:       -2.405      43.150      42.169      25.613      11.348     -39.764
  q+dip:        1.348      49.846      42.755      30.394      12.276     -44.103
   full:        0.809      49.607      42.971      30.250      12.099     -43.779

           -------------------------------------------------
          |               Frequency Printout                |
           -------------------------------------------------
 projected vibrational frequencies (cm⁻¹)
eigval :       -0.00     0.00     0.00     0.00     0.00     0.00
eigval :       12.38    16.95    24.41    27.20    30.54    35.42
eigval :       38.12    49.83    53.15    62.96    64.91    66.22
eigval :       83.32    87.74    90.45    95.06   104.63   109.05
eigval :      114.73   122.99   138.38   147.75   150.03   169.17
eigval :      190.79   193.49   218.23   245.75   265.74   280.22
eigval :      283.01   309.06   345.24   346.54   356.45   370.95
eigval :      378.15   443.97   448.39   459.68   465.11   466.04
eigval :      469.91   472.31   478.27   478.96   485.22   496.89
eigval :      507.15   525.47   530.71   536.66   540.45   541.31
eigval :      548.60   552.13   585.75   608.72   639.57   666.97
eigval :      672.81   675.95   679.34   701.31   730.62   806.15
eigval :      855.63   947.75   965.97   972.75   976.10   999.39
eigval :     1004.45  1009.26  1010.94  1012.39  1016.91  1018.09
eigval :     1035.77  1042.65  1065.33  1080.07  1091.64  1092.25
eigval :     1099.07  1107.09  1115.81  1129.72  1177.37  1231.53
eigval :     1242.12  1273.11  1309.03  1322.60  1342.22  1354.63
eigval :     1361.84  1364.79  1372.46  1391.39  1403.49  1407.86
eigval :     1420.41  1438.15  1446.30  1451.22  1453.24  1455.70
eigval :     1459.85  1464.86  1465.57  1470.89  1474.84  1479.10
eigval :     1486.61  1487.93  1503.43  1510.26  1520.48  1678.58
eigval :     1692.64  1711.46  1723.89  2892.78  2966.22  2980.29
eigval :     2987.93  3023.66  3032.83  3040.85  3041.80  3042.69
eigval :     3048.47  3049.43  3057.03  3061.66  3188.75  3300.82
eigval :     3373.51  3382.61  3392.37  3491.79  3497.48  3498.44
eigval :     3499.85  3505.26  3522.48  3523.93  3534.03  3557.16
eigval :     3564.02  3564.54  3567.85
 reduced masses (amu)
   1: 12.73   2: 12.59   3: 12.23   4: 12.16   5: 12.76   6: 12.29   7: 11.97   8: 12.20
   9: 11.75  10: 12.22  11: 12.04  12: 12.24  13: 12.38  14: 12.65  15: 12.07  16: 12.11
  17: 11.84  18: 12.18  19: 13.18  20: 12.01  21: 13.27  22: 13.24  23: 11.83  24: 12.36
  25: 11.98  26: 12.50  27: 12.41  28: 12.31  29: 11.83  30: 12.43  31:  5.41  32:  8.97
  33: 10.70  34: 11.34  35:  4.16  36:  3.26  37:  2.93  38:  1.60  39:  8.23  40:  4.34
  41:  3.13  42:  8.10  43:  8.52  44:  2.78  45:  2.66  46:  8.17  47:  6.14  48:  5.59
  49:  5.48  50:  8.00  51:  5.15  52:  4.91  53:  7.06  54:  8.90  55:  2.93  56:  2.52
  57:  9.37  58:  8.72  59:  7.42  60: 11.17  61:  8.74  62:  8.47  63:  1.92  64:  2.32
  65:  3.94  66:  8.00  67: 11.61  68: 11.96  69: 11.48  70:  3.84  71:  3.78  72:  8.34
  73:  4.72  74:  5.21  75:  5.09  76:  8.72  77:  5.20  78:  5.46  79:  7.59  80:  7.70
  81:  8.29  82:  9.76  83:  7.52  84:  9.06  85:  3.18  86:  5.57  87:  8.35  88: 10.12
  89: 10.88  90:  8.80  91:  8.49  92:  4.55  93:  7.73  94:  5.36  95:  2.94  96:  6.45
  97:  5.67  98:  8.21  99:  3.55 100:  5.97 101:  5.91 102:  4.73 103:  5.93 104:  4.92
 105:  3.85 106:  3.32 107:  2.51 108:  2.53 109:  2.18 110:  2.54 111:  1.63 112:  3.19
 113:  3.17 114:  1.73 115:  1.79 116:  3.26 117:  2.95 118:  1.64 119:  1.67 120:  1.86
 121:  3.77 122:  5.56 123:  7.79 124:  9.23 125:  9.02 126: 12.64 127: 12.70 128: 12.77
 129: 12.78 130:  1.77 131:  1.66 132:  1.89 133:  1.64 134:  1.71 135:  1.71 136:  1.80
 137:  1.34 138:  1.87 139:  1.86 140:  1.92 141:  1.69 142:  1.67 143:  1.91 144:  1.75
 145:  1.66 146:  1.64 147:  1.70 148:  1.46 149:  1.44 150:  1.45 151:  1.52 152:  1.91
 153:  1.92 154:  1.98 155:  1.99 156:  2.19 157:  2.18 158:  2.18 159:  2.20
 IR intensities (km·mol⁻¹)
   1:  1.67   2:  0.53   3:  2.03   4:  1.25   5:  1.85   6:  1.50   7:  2.20   8:  1.24
   9:  0.59  10:  0.17  11:  1.78  12:  0.87  13:  3.11  14:  2.18  15:  2.99  16:  4.75
  17:  5.16  18:  1.64  19: 11.32  20:  2.56  21:  6.91  22:  8.07  23:  3.28  24:  5.11
  25:  7.04  26:  7.01  27: 10.66  28: 13.50  29:  3.90  30:  3.28  31:  5.12  32: 12.59
  33: 15.95  34:  3.77  35:198.59  36: 14.98  37:203.36  38:  0.76  39: 62.71  40:376.50
  41:  1.31  42:  2.79  43:  2.19  44:111.50  45:119.57  46: 13.86  47: 18.23  48: 18.60
  49: 29.75  50: 18.14  51: 38.03  52:108.88  53:  8.40  54: 54.88  55:221.48  56: 73.63
  57:  1.24  58: 32.58  59: 44.29  60: 14.50  61: 73.58  62: 66.78  63:161.58  64:160.19
  65:141.53  66: 41.82  67: 36.01  68: 25.89  69: 50.46  70: 87.22  71:369.18  72:  8.55
  73: 30.59  74:  6.47  75:  0.21  76: 28.85  77:  5.13  78:  5.51  79:  0.24  80: 15.61
  81: 13.69  82:  2.76  83:  5.42  84:  7.86  85:  3.50  86: 14.60  87: 23.46  88:  0.08
  89: 46.10  90:  1.51  91:  1.11  92:  5.77  93:  6.92  94:  2.46  95:  8.50  96: 14.42
  97:  2.59  98:  3.31  99:  6.50 100: 12.16 101: 66.50 102: 35.65 103:169.77 104: 69.71
 105: 37.29 106: 41.35 107: 25.78 108:  3.25 109:  6.90 110: 26.35 111:  1.03 112:  2.70
 113:  8.58 114:  0.96 115:  1.88 116: 47.89 117: 11.39 118:  7.25 119: 24.41 120: 34.59
 121: 43.94 122:106.89 123:541.48 124:505.48 125:828.98 126:****** 127:883.46 128:556.88
 129:692.52 130: 63.47 131: 68.05 132: 39.68 133: 52.28 134: 32.63 135:  9.07 136:  9.02
 137: 16.64 138: 11.73 139: 15.19 140:  9.37 141:  2.06 142:  8.82 143:540.95 144:774.57
 145: 94.68 146:503.95 147:156.77 148: 50.16 149: 26.53 150: 16.66 151: 51.64 152: 76.40
 153: 11.25 154: 45.23 155: 34.77 156: 20.06 157: 10.53 158: 25.38 159: 25.09
 Raman intensities (amu)
Molecule has no symmetry elements
It seems to be the C1 point group
   1:  0.00   2:  0.00   3:  0.00   4:  0.00   5:  0.00   6:  0.00   7:  0.00   8:  0.00
   9:  0.00  10:  0.00  11:  0.00  12:  0.00  13:  0.00  14:  0.00  15:  0.00  16:  0.00
  17:  0.00  18:  0.00  19:  0.00  20:  0.00  21:  0.00  22:  0.00  23:  0.00  24:  0.00
  25:  0.00  26:  0.00  27:  0.00  28:  0.00  29:  0.00  30:  0.00  31:  0.00  32:  0.00
  33:  0.00  34:  0.00  35:  0.00  36:  0.00  37:  0.00  38:  0.00  39:  0.00  40:  0.00
  41:  0.00  42:  0.00  43:  0.00  44:  0.00  45:  0.00  46:  0.00  47:  0.00  48:  0.00
  49:  0.00  50:  0.00  51:  0.00  52:  0.00  53:  0.00  54:  0.00  55:  0.00  56:  0.00
  57:  0.00  58:  0.00  59:  0.00  60:  0.00  61:  0.00  62:  0.00  63:  0.00  64:  0.00
  65:  0.00  66:  0.00  67:  0.00  68:  0.00  69:  0.00  70:  0.00  71:  0.00  72:  0.00
  73:  0.00  74:  0.00  75:  0.00  76:  0.00  77:  0.00  78:  0.00  79:  0.00  80:  0.00
  81:  0.00  82:  0.00  83:  0.00  84:  0.00  85:  0.00  86:  0.00  87:  0.00  88:  0.00
  89:  0.00  90:  0.00  91:  0.00  92:  0.00  93:  0.00  94:  0.00  95:  0.00  96:  0.00
  97:  0.00  98:  0.00  99:  0.00 100:  0.00 101:  0.00 102:  0.00 103:  0.00 104:  0.00
 105:  0.00 106:  0.00 107:  0.00 108:  0.00 109:  0.00 110:  0.00 111:  0.00 112:  0.00
 113:  0.00 114:  0.00 115:  0.00 116:  0.00 117:  0.00 118:  0.00 119:  0.00 120:  0.00
 121:  0.00 122:  0.00 123:  0.00 124:  0.00 125:  0.00 126:  0.00 127:  0.00 128:  0.00
 129:  0.00 130:  0.00 131:  0.00 132:  0.00 133:  0.00 134:  0.00 135:  0.00 136:  0.00
 137:  0.00 138:  0.00 139:  0.00 140:  0.00 141:  0.00 142:  0.00 143:  0.00 144:  0.00
 145:  0.00 146:  0.00 147:  0.00 148:  0.00 149:  0.00 150:  0.00 151:  0.00 152:  0.00
 153:  0.00 154:  0.00 155:  0.00 156:  0.00 157:  0.00 158:  0.00 159:  0.00
 output can be read by thermo (or use thermo option).
 writing <g98.out> molden fake output.
 recommended (thermochemical) frequency scaling factor: 1.0
           -------------------------------------------------
          |             Thermodynamic Functions             |
           -------------------------------------------------

c1  symmetry found (for desy threshold:  0.10E+00) used in thermo

          ...................................................
          :                      SETUP                      :
          :.................................................:
          :  # frequencies                         153      :
          :  # imaginary freq.                       0      :
          :  linear?                             false      :
          :  only rotor calc.                    false      :
          :  symmetry                               c1      :
          :  rotational number                       1      :
          :  scaling factor                  1.0000000      :
          :  rotor cutoff                   50.0000000 cm⁻¹ :
          :  imag. cutoff                  -20.0000000 cm⁻¹ :
          :.................................................:

    mode    ω/cm⁻¹     T·S(HO)/kcal·mol⁻¹    T·S(FR)/kcal·mol⁻¹   T·S(vib)
   ------------------------------------------------------------------------
       1     12.38    -2.26189 (  0.37%)    -1.46990 ( 99.63%)    -1.47287
       2     16.95    -2.07597 (  1.30%)    -1.37694 ( 98.70%)    -1.38605
       3     24.41    -1.86014 (  5.37%)    -1.26896 ( 94.63%)    -1.30071
       4     27.20    -1.79596 (  8.05%)    -1.23683 ( 91.95%)    -1.28187
       5     30.54    -1.72754 ( 12.21%)    -1.20257 ( 87.79%)    -1.26669
       6     35.42    -1.63986 ( 20.12%)    -1.15865 ( 79.88%)    -1.25544
       7     38.12    -1.59649 ( 25.25%)    -1.13691 ( 74.75%)    -1.25293
       8     49.83    -1.43828 ( 49.66%)    -1.05751 ( 50.34%)    -1.24662
       9     53.15    -1.40033 ( 56.07%)    -1.03845 ( 43.93%)    -1.24136
      10     62.96    -1.30056 ( 71.55%)    -0.98824 ( 28.45%)    -1.21169
      11     64.91    -1.28269 ( 73.96%)    -0.97923 ( 26.04%)    -1.20366
      12     66.22    -1.27096 ( 75.46%)    -0.97332 ( 24.54%)    -1.19793
      13     83.32    -1.13630 ( 88.52%)    -0.90526 ( 11.48%)    -1.10977
      14     87.74    -1.10610 ( 90.46%)    -0.88995 (  9.54%)    -1.08548
      15     90.45    -1.08836 ( 91.46%)    -0.88094 (  8.54%)    -1.07064
      16     95.06    -1.05940 ( 92.89%)    -0.86622 (  7.11%)    -1.04566
      17    104.63    -1.00365 ( 95.04%)    -0.83780 (  4.96%)    -0.99543
      18    109.05    -0.97966 ( 95.77%)    -0.82554 (  4.23%)    -0.97313
      19    114.73    -0.95029 ( 96.52%)    -0.81049 (  3.48%)    -0.94542
      20    122.99    -0.91020 ( 97.34%)    -0.78989 (  2.66%)    -0.90700
      21    138.38    -0.84261 ( 98.32%)    -0.75497 (  1.68%)    -0.84114
      22    147.75    -0.80530 ( 98.71%)    -0.73556 (  1.29%)    -0.80440
      23    150.03    -0.79662 ( 98.78%)    -0.73103 (  1.22%)    -0.79582
      24    169.17    -0.72888 ( 99.24%)    -0.69546 (  0.76%)    -0.72863
      25    190.79    -0.66193 ( 99.53%)    -0.65983 (  0.47%)    -0.66192
      26    193.49    -0.65417 ( 99.56%)    -0.65566 (  0.44%)    -0.65418
      27    218.23    -0.58846 ( 99.73%)    -0.62002 (  0.27%)    -0.58854
      28    245.75    -0.52500 ( 99.83%)    -0.58484 (  0.17%)    -0.52511
      29    265.74    -0.48411 ( 99.87%)    -0.56167 (  0.13%)    -0.48421
      30    280.22    -0.45685 ( 99.90%)    -0.54595 (  0.10%)    -0.45694
      31    283.01    -0.45182 ( 99.90%)    -0.54302 (  0.10%)    -0.45190
   ------------------------------------------------------------------------

   temp. (K)  partition function   enthalpy   heat capacity  entropy
                                   cal/mol     cal/K/mol   cal/K/mol   J/K/mol
 298.15  VIB  0.869E+17            19426.658    104.240    127.788
         ROT  0.131E+08              888.752      2.981     35.553
         INT  0.114E+25            20315.411    107.221    163.340
         TR   0.618E+28             1481.254      4.968     43.384
         TOT                       21796.6648   112.1891   206.7245   864.9354

       T/K    H(0)-H(T)+PV         H(T)/Eh          T*S/Eh         G(T)/Eh
   ------------------------------------------------------------------------
    298.15    0.347352E-01    0.474610E+00    0.982215E-01    0.376389E+00
   ------------------------------------------------------------------------

         :::::::::::::::::::::::::::::::::::::::::::::::::::::
         ::                  THERMODYNAMIC                  ::
         :::::::::::::::::::::::::::::::::::::::::::::::::::::
         :: total free energy         -80.556900057354 Eh   ::
         ::.................................................::
         :: total energy              -80.933288771781 Eh   ::
         :: zero point energy           0.439875009314 Eh   ::
         :: G(RRHO) w/o ZPVE           -0.063486294887 Eh   ::
         :: G(RRHO) contrib.            0.376388714427 Eh   ::
         :::::::::::::::::::::::::::::::::::::::::::::::::::::

           -------------------------------------------------
          | TOTAL ENERGY              -80.933288771781 Eh   |
          | TOTAL ENTHALPY            -80.458678566168 Eh   |
          | TOTAL FREE ENERGY         -80.556900057354 Eh   |
          | GRADIENT NORM               0.000196167436 Eh/α |
          | HOMO-LUMO GAP               5.183566948629 eV   |
           -------------------------------------------------

------------------------------------------------------------------------
 * finished run on 2024/01/10 at 18:30:03.834     
------------------------------------------------------------------------
 total:
 * wall-time:     0 d,  0 h,  0 min, 14.454 sec
 *  cpu-time:     0 d,  0 h,  0 min, 14.381 sec
 * ratio c/w:     0.995 speedup
 SCF:
 * wall-time:     0 d,  0 h,  0 min,  0.092 sec
 *  cpu-time:     0 d,  0 h,  0 min,  0.058 sec
 * ratio c/w:     0.627 speedup
 analytical hessian:
 * wall-time:     0 d,  0 h,  0 min, 14.335 sec
 *  cpu-time:     0 d,  0 h,  0 min, 14.297 sec
 * ratio c/w:     0.997 speedup

