      -----------------------------------------------------------      
     |                   =====================                   |     
     |                           x T B                           |     
     |                   =====================                   |     
     |                         S. Grimme                         |     
     |          Mulliken Center for Theoretical Chemistry        |     
     |                    University of Bonn                     |     
      -----------------------------------------------------------      

   * xtb version 6.6.1 (unknown-commit) compiled by '@Linux' on 12/27/2023

   xtb is free software: you can redistribute it and/or modify it under
   the terms of the GNU Lesser General Public License as published by
   the Free Software Foundation, either version 3 of the License, or
   (at your option) any later version.
   
   xtb is distributed in the hope that it will be useful,
   but WITHOUT ANY WARRANTY; without even the implied warranty of
   MERCHANTABILITY or FITNESS FOR A PARTICULAR PURPOSE.  See the
   GNU Lesser General Public License for more details.
   
   Cite this work as:
   * C. Bannwarth, E. Caldeweyher, S. Ehlert, A. Hansen, P. Pracht,
     J. Seibert, S. Spicher, S. Grimme, WIREs Comput. Mol. Sci., 2020, 11,
     e01493. DOI: 10.1002/wcms.1493
   
   for GFN2-xTB:
   * C. Bannwarth, S. Ehlert and S. Grimme., J. Chem. Theory Comput., 2019,
     15, 1652-1671. DOI: 10.1021/acs.jctc.8b01176
   for GFN1-xTB:
   * S. Grimme, C. Bannwarth, P. Shushkov, J. Chem. Theory Comput., 2017,
     13, 1989-2009. DOI: 10.1021/acs.jctc.7b00118
   for GFN0-xTB:
   * P. Pracht, E. Caldeweyher, S. Ehlert, S. Grimme, ChemRxiv, 2019, preprint.
     DOI: 10.26434/chemrxiv.8326202.v1
   for GFN-FF:
   * S. Spicher and S. Grimme, Angew. Chem. Int. Ed., 2020, 59, 15665-15673.
     DOI: 10.1002/anie.202004239
   
   for ALPB and GBSA implicit solvation:
   * S. Ehlert, M. Stahn, S. Spicher, S. Grimme, J. Chem. Theory Comput.,
     2021, 17, 4250-4261. DOI: 10.1021/acs.jctc.1c00471
   
   for DFT-D4:
   * E. Caldeweyher, C. Bannwarth and S. Grimme, J. Chem. Phys., 2017,
     147, 034112. DOI: 10.1063/1.4993215
   * E. Caldeweyher, S. Ehlert, A. Hansen, H. Neugebauer, S. Spicher,
     C. Bannwarth and S. Grimme, J. Chem. Phys., 2019, 150, 154122.
     DOI: 10.1063/1.5090222
   * E. Caldeweyher, J.-M. Mewes, S. Ehlert and S. Grimme, Phys. Chem. Chem. Phys.
     2020, 22, 8499-8512. DOI: 10.1039/D0CP00502A
   
   for sTDA-xTB:
   * S. Grimme and C. Bannwarth, J. Chem. Phys., 2016, 145, 054103.
     DOI: 10.1063/1.4959605
   
   in the mass-spec context:
   * V. Asgeirsson, C. Bauer and S. Grimme, Chem. Sci., 2017, 8, 4879.
     DOI: 10.1039/c7sc00601b
   * J. Koopman and S. Grimme, ACS Omega 2019, 4, 12, 15120-15133.
     DOI: 10.1021/acsomega.9b02011
   
   for metadynamics refer to:
   * S. Grimme, J. Chem. Theory Comput., 2019, 155, 2847-2862
     DOI: 10.1021/acs.jctc.9b00143
   
   for SPH calculations refer to:
   * S. Spicher and S. Grimme, J. Chem. Theory Comput., 2021, 17, 1701-1714
     DOI: 10.1021/acs.jctc.0c01306
   
   with help from (in alphabetical order)
   P. Atkinson, C. Bannwarth, F. Bohle, G. Brandenburg, E. Caldeweyher
   M. Checinski, S. Dohm, S. Ehlert, S. Ehrlich, I. Gerasimov, C. Hölzer
   A. Katbashev, J. Koopman, C. Lavigne, S. Lehtola, F. März, M. Müller,
   F. Musil, H. Neugebauer, J. Pisarek, C. Plett, P. Pracht, F. Pultar,
   J. Seibert, P. Shushkov, S. Spicher, M. Stahn, M. Steiner, T. Strunk,
   J. Stückrath, T. Rose, and J. Unsleber
   
 * started run on 2024/01/10 at 18:32:59.999     

           -------------------------------------------------
          |                Calculation Setup                |
           -------------------------------------------------

          program call               : xtb struc.xyz --gfn2 --hess
          hostname                   : swaroop
          coordinate file            : struc.xyz
          omp threads                :                     1

   ID    Z sym.   atoms
    1    8 O      1, 23, 31, 39, 47
    2    6 C      2, 5, 9, 13, 17, 22, 30, 38, 46
    3    1 H      3, 4, 6, 7, 10-12, 14-16, 18-21, 25, 26, 28, 29, 33, 34,
                  36, 37, 41, 42, 44, 45, 49, 50, 52, 53
    4    7 N      8, 24, 27, 32, 35, 40, 43, 48, 51

molecular fragmentation (1/2 indicates fragments):
11111111111111111111122222222222222222222222222222222
# atoms in fragment 1/2:    21    32
 fragment masses (1/2) :      104.17      240.22
CMA distance (Bohr)    :   5.900
constraining FC (au)   :  0.0500

           -------------------------------------------------
          |                 G F N 2 - x T B                 |
           -------------------------------------------------

        Reference                      10.1021/acs.jctc.8b01176
      * Hamiltonian:
        H0-scaling (s, p, d)           1.850000    2.230000    2.230000
        zeta-weighting                 0.500000
      * Dispersion:
        s8                             2.700000
        a1                             0.520000
        a2                             5.000000
        s9                             5.000000
      * Repulsion:
        kExp                           1.500000    1.000000
        rExp                           1.000000
      * Coulomb:
        alpha                          2.000000
        third order                    shell-resolved
        anisotropic                    true
        a3                             3.000000
        a5                             4.000000
        cn-shift                       1.200000
        cn-exp                         4.000000
        max-rad                        5.000000


          ...................................................
          :                      SETUP                      :
          :.................................................:
          :  # basis functions                 122          :
          :  # atomic orbitals                 122          :
          :  # shells                           76          :
          :  # electrons                       140          :
          :  max. iterations                   250          :
          :  Hamiltonian                  GFN2-xTB          :
          :  restarted?                      false          :
          :  GBSA solvation                  false          :
          :  PC potential                    false          :
          :  electronic temp.          300.0000000     K    :
          :  accuracy                    1.0000000          :
          :  -> integral cutoff          0.2500000E+02      :
          :  -> integral neglect         0.1000000E-07      :
          :  -> SCF convergence          0.1000000E-05 Eh   :
          :  -> wf. convergence          0.1000000E-03 e    :
          :  Broyden damping             0.4000000          :
          ...................................................

 iter      E             dE          RMSdq      gap      omega  full diag
   1    -81.5476435 -0.815476E+02  0.437E+00    5.07       0.0  T
   2    -81.8396132 -0.291970E+00  0.237E+00    5.93       1.0  T
   3    -81.8453397 -0.572645E-02  0.116E+00    5.69       1.0  T
   4    -81.8466851 -0.134547E-02  0.242E-01    5.77       1.0  T
   5    -81.8475852 -0.900053E-03  0.929E-02    5.68       1.0  T
   6    -81.8476103 -0.250792E-04  0.267E-02    5.69       1.0  T
   7    -81.8476152 -0.492362E-05  0.771E-03    5.69       1.8  T
   8    -81.8476155 -0.284664E-06  0.297E-03    5.69       4.6  T
   9    -81.8476155 -0.328199E-07  0.111E-03    5.69      12.4  T
  10    -81.8476155 -0.732805E-08  0.183E-04    5.69      75.2  T
  11    -81.8476155 -0.332435E-09  0.882E-05    5.69     155.7  T

   *** convergence criteria satisfied after 11 iterations ***

         #    Occupation            Energy/Eh            Energy/eV
      -------------------------------------------------------------
         1        2.0000           -0.7834047             -21.3175
       ...           ...                  ...                  ...
        64        2.0000           -0.4890353             -13.3073
        65        2.0000           -0.4849628             -13.1965
        66        2.0000           -0.4844222             -13.1818
        67        2.0000           -0.4815181             -13.1028
        68        2.0000           -0.4774555             -12.9922
        69        2.0000           -0.4761008             -12.9554
        70        2.0000           -0.4723307             -12.8528 (HOMO)
        71                         -0.2633646              -7.1665 (LUMO)
        72                         -0.2627843              -7.1507
        73                         -0.2494550              -6.7880
        74                         -0.2475488              -6.7361
        75                         -0.1386567              -3.7730
       ...                                ...                  ...
       122                          0.5778289              15.7235
      -------------------------------------------------------------
                  HL-Gap            0.2089661 Eh            5.6863 eV
             Fermi-level           -0.3678476 Eh          -10.0096 eV

 SCC (total)                   0 d,  0 h,  0 min,  0.108 sec
 SCC setup                      ...        0 min,  0.000 sec (  0.271%)
 Dispersion                     ...        0 min,  0.006 sec (  5.197%)
 classical contributions        ...        0 min,  0.000 sec (  0.167%)
 integral evaluation            ...        0 min,  0.007 sec (  6.590%)
 iterations                     ...        0 min,  0.068 sec ( 62.730%)
 molecular gradient             ...        0 min,  0.027 sec ( 24.805%)
 printout                       ...        0 min,  0.000 sec (  0.227%)

         :::::::::::::::::::::::::::::::::::::::::::::::::::::
         ::                     SUMMARY                     ::
         :::::::::::::::::::::::::::::::::::::::::::::::::::::
         :: total energy             -80.931637697493 Eh    ::
         :: gradient norm              0.000119077409 Eh/a0 ::
         :: HOMO-LUMO gap              5.686257164748 eV    ::
         ::.................................................::
         :: SCC energy               -81.847615528318 Eh    ::
         :: -> isotropic ES            0.289608133855 Eh    ::
         :: -> anisotropic ES         -0.027963829701 Eh    ::
         :: -> anisotropic XC          0.021019210922 Eh    ::
         :: -> dispersion             -0.038786688697 Eh    ::
         :: repulsion energy           0.915642999143 Eh    ::
         :: add. restraining           0.000000000000 Eh    ::
         :: total charge               1.000000000000 e     ::
         :::::::::::::::::::::::::::::::::::::::::::::::::::::

           ------------------------------------------------- 
          |                Numerical Hessian                |
           ------------------------------------------------- 
step length          :   0.00500
SCC accuracy         :   0.30000
Hessian scale factor :   1.00000
frozen atoms in %    :   0.00000    0
RMS gradient         :   0.00012
estimated CPU  time      0.22 min
estimated wall time      0.23 min

writing file <hessian>.

 projected vibrational frequencies (cm⁻¹)
eigval :       -0.00    -0.00    -0.00    -0.00     0.00     0.00
eigval :       -6.96     4.42     7.30    12.86    18.67    19.16
eigval :       24.86    28.32    37.53    40.32    46.36    52.91
eigval :       60.12    63.41    75.20    79.21    91.20    97.51
eigval :      102.62   112.55   120.88   127.07   130.17   175.38
eigval :      181.86   195.89   250.71   253.17   271.16   275.18
eigval :      316.39   321.02   326.79   337.48   347.76   353.27
eigval :      366.16   372.54   417.29   426.32   443.12   445.50
eigval :      454.67   457.28   459.74   462.04   464.79   475.49
eigval :      483.57   500.85   501.23   509.98   530.68   533.48
eigval :      546.38   570.70   573.45   581.68   635.82   670.38
eigval :      674.14   676.27   679.19   739.06   767.71   847.23
eigval :      900.41   930.36   946.55   950.76   976.20   994.55
eigval :      994.93   997.00  1002.94  1013.29  1017.43  1028.51
eigval :     1030.55  1040.52  1043.66  1081.24  1083.73  1098.55
eigval :     1099.93  1107.86  1114.63  1133.77  1179.09  1232.19
eigval :     1250.14  1275.34  1317.94  1337.43  1343.18  1349.44
eigval :     1353.85  1355.30  1364.33  1399.48  1402.76  1407.30
eigval :     1418.68  1435.36  1444.01  1446.68  1454.41  1457.20
eigval :     1457.33  1457.87  1464.59  1468.80  1472.07  1479.80
eigval :     1495.52  1496.04  1496.25  1499.68  1530.28  1664.93
eigval :     1715.93  1724.99  1728.83  2885.05  2962.47  2986.02
eigval :     2999.27  3009.36  3030.78  3035.85  3039.41  3041.41
eigval :     3043.10  3048.48  3051.25  3054.56  3060.79  3213.01
eigval :     3395.46  3432.70  3493.18  3496.11  3499.85  3499.88
eigval :     3503.91  3521.13  3530.71  3557.51  3557.75  3559.38
eigval :     3564.25  3564.82  3569.71
           -------------------------------------------------
          |                Property Printout                |
           -------------------------------------------------

    * Orbital Energies and Occupations

         #    Occupation            Energy/Eh            Energy/eV
      -------------------------------------------------------------
         1        2.0000           -0.7834052             -21.3175
       ...           ...                  ...                  ...
        58        2.0000           -0.5010030             -13.6330
        59        2.0000           -0.5008992             -13.6302
        60        2.0000           -0.4979797             -13.5507
        61        2.0000           -0.4966611             -13.5148
        62        2.0000           -0.4929205             -13.4130
        63        2.0000           -0.4928038             -13.4099
        64        2.0000           -0.4890356             -13.3073
        65        2.0000           -0.4849625             -13.1965
        66        2.0000           -0.4844224             -13.1818
        67        2.0000           -0.4815180             -13.1028
        68        2.0000           -0.4774557             -12.9922
        69        2.0000           -0.4761011             -12.9554
        70        2.0000           -0.4723313             -12.8528 (HOMO)
        71                         -0.2633649              -7.1665 (LUMO)
        72                         -0.2627848              -7.1507
        73                         -0.2494555              -6.7880
        74                         -0.2475488              -6.7361
        75                         -0.1386566              -3.7730
        76                         -0.0936190              -2.5475
        77                         -0.0930822              -2.5329
        78                         -0.0788085              -2.1445
        79                         -0.0711792              -1.9369
        80                         -0.0617695              -1.6808
        81                         -0.0574820              -1.5642
       ...                                ...                  ...
       122                          0.5778286              15.7235
      -------------------------------------------------------------
                  HL-Gap            0.2089664 Eh            5.6863 eV
             Fermi-level           -0.3678481 Eh          -10.0097 eV

     #   Z          covCN         q      C6AA      α(0)
     1   8 O        1.652    -0.488    22.630     6.422
     2   6 C        3.673     0.077    19.515     6.331
     3   1 H        0.924     0.050     2.324     2.384
     4   1 H        0.923     0.040     2.450     2.448
     5   6 C        3.769    -0.071    21.893     6.668
     6   1 H        0.924     0.116     1.647     2.007
     7   1 H        0.924     0.103     1.761     2.075
     8   7 N        3.623     0.160    18.542     6.395
     9   6 C        3.723    -0.111    22.733     6.809
    10   1 H        0.925     0.074     2.044     2.236
    11   1 H        0.925     0.110     1.696     2.037
    12   1 H        0.925     0.124     1.579     1.965
    13   6 C        3.736    -0.118    22.850     6.822
    14   1 H        0.925     0.126     1.568     1.958
    15   1 H        0.925     0.111     1.685     2.030
    16   1 H        0.925     0.078     1.995     2.209
    17   6 C        3.721    -0.104    22.605     6.790
    18   1 H        0.925     0.117     1.637     2.001
    19   1 H        0.925     0.095     1.835     2.119
    20   1 H        0.925     0.080     1.979     2.200
    21   1 H        0.801     0.338     0.618     1.235
    22   6 C        2.675     0.347    21.105     7.517
    23   8 O        0.860    -0.511    24.034     6.573
    24   7 N        2.645    -0.288    27.434     7.779
    25   1 H        0.860     0.201     1.100     1.643
    26   1 H        0.861     0.187     1.175     1.698
    27   7 N        2.645    -0.289    27.456     7.782
    28   1 H        0.861     0.187     1.176     1.699
    29   1 H        0.860     0.200     1.104     1.646
    30   6 C        2.675     0.339    21.248     7.543
    31   8 O        0.860    -0.536    24.587     6.648
    32   7 N        2.650    -0.292    27.527     7.792
    33   1 H        0.861     0.192     1.149     1.679
    34   1 H        0.860     0.224     0.992     1.560
    35   7 N        2.650    -0.295    27.603     7.803
    36   1 H        0.860     0.224     0.992     1.560
    37   1 H        0.860     0.207     1.072     1.622
    38   6 C        2.675     0.344    21.152     7.526
    39   8 O        0.860    -0.528    24.424     6.626
    40   7 N        2.644    -0.300    27.723     7.820
    41   1 H        0.860     0.193     1.145     1.676
    42   1 H        0.860     0.177     1.229     1.737
    43   7 N        2.643    -0.316    28.136     7.878
    44   1 H        0.860     0.170     1.275     1.769
    45   1 H        0.859     0.240     0.922     1.504
    46   6 C        2.675     0.346    21.126     7.521
    47   8 O        0.860    -0.519    24.215     6.598
    48   7 N        2.646    -0.289    27.465     7.783
    49   1 H        0.860     0.199     1.110     1.651
    50   1 H        0.861     0.186     1.181     1.703
    51   7 N        2.646    -0.290    27.479     7.785
    52   1 H        0.861     0.186     1.182     1.703
    53   1 H        0.860     0.199     1.113     1.653

 Mol. C6AA /au·bohr⁶  :      21802.754543
 Mol. C8AA /au·bohr⁸  :     454236.036896
 Mol. α(0) /au        :        220.616981


Wiberg/Mayer (AO) data.
largest (>0.10) Wiberg bond orders for each atom

 ---------------------------------------------------------------------------
     #   Z sym  total        # sym  WBO       # sym  WBO       # sym  WBO
 ---------------------------------------------------------------------------
     1   8 O    1.940 --     2 C    1.023    21 H    0.794
     2   6 C    3.968 --     1 O    1.023     5 C    0.992     3 H    0.968
                             4 H    0.962
     3   1 H    0.997 --     2 C    0.968
     4   1 H    0.998 --     2 C    0.962
     5   6 C    3.927 --     2 C    0.992     7 H    0.959     6 H    0.953
                             8 N    0.932
     6   1 H    0.987 --     5 C    0.953
     7   1 H    0.989 --     5 C    0.959
     8   7 N    3.823 --    17 C    0.963     9 C    0.957    13 C    0.955
                             5 C    0.932
     9   6 C    3.920 --    10 H    0.979    11 H    0.965    12 H    0.960
                             8 N    0.957
    10   1 H    0.995 --     9 C    0.979
    11   1 H    0.988 --     9 C    0.965
    12   1 H    0.985 --     9 C    0.960
    13   6 C    3.919 --    16 H    0.978    15 H    0.966    14 H    0.961
                             8 N    0.955
    14   1 H    0.984 --    13 C    0.961
    15   1 H    0.988 --    13 C    0.966
    16   1 H    0.994 --    13 C    0.978
    17   6 C    3.932 --    20 H    0.978    19 H    0.975    18 H    0.964
                             8 N    0.963
    18   1 H    0.986 --    17 C    0.964
    19   1 H    0.991 --    17 C    0.975
    20   1 H    0.994 --    17 C    0.978
    21   1 H    0.886 --     1 O    0.794
    22   6 C    3.959 --    23 O    1.537    24 N    1.208    27 N    1.206
    23   8 O    1.922 --    22 C    1.537    27 N    0.143    24 N    0.143
    24   7 N    3.322 --    22 C    1.208    26 H    0.946    25 H    0.942
                            23 O    0.143
    25   1 H    0.960 --    24 N    0.942
    26   1 H    0.965 --    24 N    0.946
    27   7 N    3.321 --    22 C    1.206    28 H    0.946    29 H    0.943
                            23 O    0.143
    28   1 H    0.965 --    27 N    0.946
    29   1 H    0.960 --    27 N    0.943
    30   6 C    3.961 --    31 O    1.451    35 N    1.259    32 N    1.245
    31   8 O    1.928 --    30 C    1.451    35 N    0.134    32 N    0.130
    32   7 N    3.344 --    30 C    1.245    33 H    0.945    34 H    0.912
                            31 O    0.130
    33   1 H    0.963 --    32 N    0.945
    34   1 H    0.950 --    32 N    0.912
    35   7 N    3.353 --    30 C    1.259    37 H    0.935    36 H    0.908
                            31 O    0.134
    36   1 H    0.949 --    35 N    0.908
    37   1 H    0.957 --    35 N    0.935
    38   6 C    3.959 --    39 O    1.531    43 N    1.235    40 N    1.184
    39   8 O    1.893 --    38 C    1.531    43 N    0.148    40 N    0.135
    40   7 N    3.297 --    38 C    1.184    42 H    0.949    41 H    0.946
                            39 O    0.135
    41   1 H    0.963 --    40 N    0.946
    42   1 H    0.968 --    40 N    0.949
    43   7 N    3.319 --    38 C    1.235    44 H    0.951    45 H    0.872
                            39 O    0.148
    44   1 H    0.971 --    43 N    0.951
    45   1 H    0.942 --    43 N    0.872
    46   6 C    3.959 --    47 O    1.543    48 N    1.206    51 N    1.204
    47   8 O    1.899 --    46 C    1.543    48 N    0.144    51 N    0.144
    48   7 N    3.321 --    46 C    1.206    50 H    0.947    49 H    0.943
                            47 O    0.144
    49   1 H    0.960 --    48 N    0.943
    50   1 H    0.965 --    48 N    0.947
    51   7 N    3.320 --    46 C    1.204    52 H    0.947    53 H    0.944
                            47 O    0.144
    52   1 H    0.965 --    51 N    0.947
    53   1 H    0.961 --    51 N    0.944
 ---------------------------------------------------------------------------

Topologies differ in total number of bonds
Writing topology from bond orders to xtbtopo.mol

molecular dipole:
                 x           y           z       tot (Debye)
 q only:       -0.312      -0.297       0.531
   full:        0.073       0.128       0.415       1.119
molecular quadrupole (traceless):
                xx          xy          yy          xz          yz          zz
 q only:      113.617       4.154     -70.243     -14.840      -5.064     -43.374
  q+dip:      128.987       1.956     -82.711     -17.675      -5.326     -46.276
   full:      128.979       1.786     -82.052     -17.747      -5.102     -46.927

           -------------------------------------------------
          |               Frequency Printout                |
           -------------------------------------------------
 projected vibrational frequencies (cm⁻¹)
eigval :       -0.00    -0.00    -0.00    -0.00     0.00     0.00
eigval :       -6.96     4.42     7.30    12.86    18.67    19.16
eigval :       24.86    28.32    37.53    40.32    46.36    52.91
eigval :       60.12    63.41    75.20    79.21    91.20    97.51
eigval :      102.62   112.55   120.88   127.07   130.17   175.38
eigval :      181.86   195.89   250.71   253.17   271.16   275.18
eigval :      316.39   321.02   326.79   337.48   347.76   353.27
eigval :      366.16   372.54   417.29   426.32   443.12   445.50
eigval :      454.67   457.28   459.74   462.04   464.79   475.49
eigval :      483.57   500.85   501.23   509.98   530.68   533.48
eigval :      546.38   570.70   573.45   581.68   635.82   670.38
eigval :      674.14   676.27   679.19   739.06   767.71   847.23
eigval :      900.41   930.36   946.55   950.76   976.20   994.55
eigval :      994.93   997.00  1002.94  1013.29  1017.43  1028.51
eigval :     1030.55  1040.52  1043.66  1081.24  1083.73  1098.55
eigval :     1099.93  1107.86  1114.63  1133.77  1179.09  1232.19
eigval :     1250.14  1275.34  1317.94  1337.43  1343.18  1349.44
eigval :     1353.85  1355.30  1364.33  1399.48  1402.76  1407.30
eigval :     1418.68  1435.36  1444.01  1446.68  1454.41  1457.20
eigval :     1457.33  1457.87  1464.59  1468.80  1472.07  1479.80
eigval :     1495.52  1496.04  1496.25  1499.68  1530.28  1664.93
eigval :     1715.93  1724.99  1728.83  2885.05  2962.47  2986.02
eigval :     2999.27  3009.36  3030.78  3035.85  3039.41  3041.41
eigval :     3043.10  3048.48  3051.25  3054.56  3060.79  3213.01
eigval :     3395.46  3432.70  3493.18  3496.11  3499.85  3499.88
eigval :     3503.91  3521.13  3530.71  3557.51  3557.75  3559.38
eigval :     3564.25  3564.82  3569.71
 reduced masses (amu)
   1: 12.51   2: 12.73   3: 12.33   4: 12.32   5: 12.71   6: 12.73   7: 10.94   8: 11.16
   9: 12.24  10: 12.16  11: 11.92  12: 12.24  13: 12.27  14: 12.46  15: 12.25  16: 12.50
  17: 13.32  18: 13.36  19: 12.51  20: 12.39  21: 13.64  22: 13.85  23: 13.08  24: 11.74
  25: 12.10  26: 11.89  27: 11.71  28: 12.16  29: 11.93  30: 12.64  31:  3.83  32: 10.10
  33:  3.71  34: 11.41  35:  4.09  36:  5.24  37:  9.42  38:  4.34  39:  3.64  40:  2.83
  41:  2.93  42:  3.74  43:  6.74  44:  3.21  45:  3.29  46:  8.91  47:  1.55  48:  1.74
  49:  8.23  50:  8.46  51:  5.87  52:  5.00  53:  3.81  54:  7.15  55:  8.38  56:  3.43
  57:  3.24  58:  8.85  59:  9.69  60:  9.64  61: 11.26  62: 10.11  63:  8.76  64:  2.99
  65:  3.88  66: 11.47  67: 11.99  68: 11.89  69:  9.98  70:  2.50  71:  9.23  72:  2.11
  73:  6.45  74:  8.82  75:  5.24  76:  5.16  77:  4.88  78:  8.79  79:  5.12  80:  8.88
  81:  7.53  82:  9.48  83:  7.59  84:  8.52  85:  8.49  86:  3.02  87:  4.98  88:  9.64
  89:  9.54  90:  7.18  91:  7.05  92:  6.04  93:  7.21  94:  9.16  95:  3.01  96:  4.94
  97:  6.39  98:  8.11  99:  6.41 100:  3.43 101:  3.91 102:  5.62 103:  6.04 104:  4.91
 105:  6.28 106:  2.64 107:  2.56 108:  2.68 109:  2.13 110:  2.27 111:  1.77 112:  3.09
 113:  1.85 114:  2.83 115:  3.04 116:  1.94 117:  2.65 118:  1.83 119:  1.63 120:  1.61
 121:  2.12 122:  7.67 123:  8.00 124:  7.67 125: 10.27 126: 12.57 127: 12.79 128: 12.83
 129: 12.84 130:  1.77 131:  1.68 132:  1.78 133:  1.84 134:  1.83 135:  1.65 136:  1.68
 137:  1.76 138:  1.66 139:  1.50 140:  1.89 141:  1.91 142:  1.81 143:  1.75 144:  1.78
 145:  1.61 146:  1.61 147:  1.45 148:  1.44 149:  1.44 150:  1.46 151:  1.46 152:  1.90
 153:  2.05 154:  2.17 155:  2.05 156:  2.19 157:  2.19 158:  2.18 159:  2.18
 IR intensities (km·mol⁻¹)
   1:  1.35   2:  1.12   3:  1.11   4:  0.97   5:  1.27   6:  2.88   7:  0.04   8:  0.07
   9:  1.97  10:  2.67  11:  1.85  12:  0.41  13:  3.94  14:  1.46  15:  1.42  16:  5.10
  17:  1.16  18:  0.90  19:  2.03  20:  0.83  21:  2.77  22:  9.81  23:  8.97  24: 11.96
  25:  9.43  26:  6.99  27:  1.09  28: 23.01  29: 18.73  30: 11.05  31: 10.36  32:  5.66
  33: 18.23  34: 11.94  35: 18.47  36:  1.08  37:  6.07  38: 38.88  39:351.47  40:248.87
  41:  7.64  42:435.23  43:  2.84  44:  5.39  45:169.03  46:  0.92  47:  4.11  48:  6.45
  49: 13.68  50:  7.90  51:219.03  52:246.48  53: 27.35  54: 23.27  55: 20.93  56: 57.92
  57: 85.95  58: 79.42  59: 34.06  60: 54.98  61: 24.26  62: 36.79  63: 13.66  64:  5.88
  65: 74.88  66: 25.13  67: 31.16  68: 41.12  69: 89.90  70:210.82  71:  2.14  72:254.30
  73:  2.63  74:  7.14  75:  1.53  76:  1.43  77:  0.11  78:  0.08  79: 10.42  80:  0.36
  81: 23.71  82: 16.71  83: 34.92  84: 16.41  85: 11.06  86:  1.98  87: 18.32  88:  2.76
  89:  0.74  90: 16.77  91:  9.63  92: 20.33  93:  3.90  94: 53.72  95: 18.91  96:  6.94
  97:  2.48  98:  2.81  99: 15.74 100:  1.90 101: 59.65 102: 54.13 103: 61.55 104: 34.00
 105:189.24 106: 15.03 107:  9.74 108:128.23 109: 15.25 110: 15.32 111:  3.38 112: 43.22
 113:  0.46 114:  4.25 115:  9.85 116: 19.74 117:  8.40 118:  9.42 119:  3.55 120: 53.77
 121: 31.02 122:262.83 123:304.81 124:884.18 125:547.95 126:****** 127:****** 128:432.99
 129:557.15 130: 40.47 131:363.42 132:280.37 133:621.56 134:  8.06 135: 54.27 136: 13.23
 137:  9.72 138:  6.52 139: 32.13 140: 10.20 141: 63.25 142: 17.03 143:  1.07 144:******
 145: 70.42 146:391.55 147: 12.64 148: 40.03 149: 39.81 150:  1.40 151:  7.78 152:  9.02
 153: 92.77 154:  5.17 155: 48.50 156: 14.53 157: 13.24 158: 18.21 159: 11.11
 Raman intensities (amu)
Molecule has no symmetry elements
It seems to be the C1 point group
   1:  0.00   2:  0.00   3:  0.00   4:  0.00   5:  0.00   6:  0.00   7:  0.00   8:  0.00
   9:  0.00  10:  0.00  11:  0.00  12:  0.00  13:  0.00  14:  0.00  15:  0.00  16:  0.00
  17:  0.00  18:  0.00  19:  0.00  20:  0.00  21:  0.00  22:  0.00  23:  0.00  24:  0.00
  25:  0.00  26:  0.00  27:  0.00  28:  0.00  29:  0.00  30:  0.00  31:  0.00  32:  0.00
  33:  0.00  34:  0.00  35:  0.00  36:  0.00  37:  0.00  38:  0.00  39:  0.00  40:  0.00
  41:  0.00  42:  0.00  43:  0.00  44:  0.00  45:  0.00  46:  0.00  47:  0.00  48:  0.00
  49:  0.00  50:  0.00  51:  0.00  52:  0.00  53:  0.00  54:  0.00  55:  0.00  56:  0.00
  57:  0.00  58:  0.00  59:  0.00  60:  0.00  61:  0.00  62:  0.00  63:  0.00  64:  0.00
  65:  0.00  66:  0.00  67:  0.00  68:  0.00  69:  0.00  70:  0.00  71:  0.00  72:  0.00
  73:  0.00  74:  0.00  75:  0.00  76:  0.00  77:  0.00  78:  0.00  79:  0.00  80:  0.00
  81:  0.00  82:  0.00  83:  0.00  84:  0.00  85:  0.00  86:  0.00  87:  0.00  88:  0.00
  89:  0.00  90:  0.00  91:  0.00  92:  0.00  93:  0.00  94:  0.00  95:  0.00  96:  0.00
  97:  0.00  98:  0.00  99:  0.00 100:  0.00 101:  0.00 102:  0.00 103:  0.00 104:  0.00
 105:  0.00 106:  0.00 107:  0.00 108:  0.00 109:  0.00 110:  0.00 111:  0.00 112:  0.00
 113:  0.00 114:  0.00 115:  0.00 116:  0.00 117:  0.00 118:  0.00 119:  0.00 120:  0.00
 121:  0.00 122:  0.00 123:  0.00 124:  0.00 125:  0.00 126:  0.00 127:  0.00 128:  0.00
 129:  0.00 130:  0.00 131:  0.00 132:  0.00 133:  0.00 134:  0.00 135:  0.00 136:  0.00
 137:  0.00 138:  0.00 139:  0.00 140:  0.00 141:  0.00 142:  0.00 143:  0.00 144:  0.00
 145:  0.00 146:  0.00 147:  0.00 148:  0.00 149:  0.00 150:  0.00 151:  0.00 152:  0.00
 153:  0.00 154:  0.00 155:  0.00 156:  0.00 157:  0.00 158:  0.00 159:  0.00
 output can be read by thermo (or use thermo option).
 writing <g98.out> molden fake output.
 recommended (thermochemical) frequency scaling factor: 1.0
           -------------------------------------------------
          |             Thermodynamic Functions             |
           -------------------------------------------------

c1  symmetry found (for desy threshold:  0.10E+00) used in thermo
 inverting freq            1   6.9630774961078101     

          ...................................................
          :                      SETUP                      :
          :.................................................:
          :  # frequencies                         153      :
          :  # imaginary freq.                       0      :
          :  linear?                             false      :
          :  only rotor calc.                    false      :
          :  symmetry                               c1      :
          :  rotational number                       1      :
          :  scaling factor                  1.0000000      :
          :  rotor cutoff                   50.0000000 cm⁻¹ :
          :  imag. cutoff                  -20.0000000 cm⁻¹ :
          :.................................................:

    mode    ω/cm⁻¹     T·S(HO)/kcal·mol⁻¹    T·S(FR)/kcal·mol⁻¹   T·S(vib)
   ------------------------------------------------------------------------
       1      6.96    -2.60292 (  0.04%)    -1.64043 ( 99.96%)    -1.64079
       2      4.42    -2.87194 (  0.01%)    -1.77488 ( 99.99%)    -1.77494
       3      7.30    -2.57526 (  0.05%)    -1.62661 ( 99.95%)    -1.62704
       4     12.86    -2.23935 (  0.44%)    -1.45868 ( 99.56%)    -1.46208
       5     18.67    -2.01881 (  1.91%)    -1.34837 ( 98.09%)    -1.36115
       6     19.16    -2.00327 (  2.11%)    -1.34060 ( 97.89%)    -1.35460
       7     24.86    -1.84918 (  5.76%)    -1.26349 ( 94.24%)    -1.29723
       8     28.32    -1.77217 (  9.33%)    -1.22494 ( 90.67%)    -1.27599
       9     37.53    -1.60566 ( 24.09%)    -1.14152 ( 75.91%)    -1.25334
      10     40.32    -1.56336 ( 29.71%)    -1.12031 ( 70.29%)    -1.25193
      11     46.36    -1.48082 ( 42.51%)    -1.07889 ( 57.49%)    -1.24975
      12     52.91    -1.40296 ( 55.63%)    -1.03978 ( 44.37%)    -1.24182
      13     60.12    -1.32770 ( 67.64%)    -1.00192 ( 32.36%)    -1.22229
      14     63.41    -1.29644 ( 72.11%)    -0.98617 ( 27.89%)    -1.20992
      15     75.20    -1.19632 ( 83.65%)    -0.93564 ( 16.35%)    -1.15370
      16     79.21    -1.16585 ( 86.30%)    -0.92023 ( 13.70%)    -1.13220
      17     91.20    -1.08351 ( 91.71%)    -0.87848 (  8.29%)    -1.06652
      18     97.51    -1.04459 ( 93.53%)    -0.85869 (  6.47%)    -1.03257
      19    102.62    -1.01490 ( 94.66%)    -0.84355 (  5.34%)    -1.00575
      20    112.55    -0.96135 ( 96.25%)    -0.81617 (  3.75%)    -0.95591
      21    120.88    -0.92016 ( 97.16%)    -0.79503 (  2.84%)    -0.91661
      22    127.07    -0.89146 ( 97.66%)    -0.78024 (  2.34%)    -0.88885
      23    130.17    -0.87762 ( 97.87%)    -0.77310 (  2.13%)    -0.87539
      24    175.38    -0.70870 ( 99.34%)    -0.68478 (  0.66%)    -0.70855
      25    181.86    -0.68850 ( 99.43%)    -0.67403 (  0.57%)    -0.68842
      26    195.89    -0.64738 ( 99.58%)    -0.65201 (  0.42%)    -0.64740
      27    250.71    -0.51447 ( 99.84%)    -0.57892 (  0.16%)    -0.51457
      28    253.17    -0.50935 ( 99.85%)    -0.57603 (  0.15%)    -0.50945
      29    271.16    -0.47370 ( 99.88%)    -0.55569 (  0.12%)    -0.47379
      30    275.18    -0.46615 ( 99.89%)    -0.55134 (  0.11%)    -0.46624
   ------------------------------------------------------------------------

   temp. (K)  partition function   enthalpy   heat capacity  entropy
                                   cal/mol     cal/K/mol   cal/K/mol   J/K/mol
 298.15  VIB  0.441E+21            20062.430    102.296    136.554
         ROT  0.223E+08              888.752      2.981     36.601
         INT  0.982E+28            20951.182    105.277    173.155
         TR   0.618E+28             1481.254      4.968     43.384
         TOT                       22432.4359   110.2450   216.5394   906.0007

       T/K    H(0)-H(T)+PV         H(T)/Eh          T*S/Eh         G(T)/Eh
   ------------------------------------------------------------------------
    298.15    0.357484E-01    0.474077E+00    0.102885E+00    0.371192E+00
   ------------------------------------------------------------------------

         :::::::::::::::::::::::::::::::::::::::::::::::::::::
         ::                  THERMODYNAMIC                  ::
         :::::::::::::::::::::::::::::::::::::::::::::::::::::
         :: total free energy         -80.560445539212 Eh   ::
         ::.................................................::
         :: total energy              -80.931637697531 Eh   ::
         :: zero point energy           0.438328631202 Eh   ::
         :: G(RRHO) w/o ZPVE           -0.067136472884 Eh   ::
         :: G(RRHO) contrib.            0.371192158318 Eh   ::
         :::::::::::::::::::::::::::::::::::::::::::::::::::::
imag cut-off (cm-1) :    5.00
 found            1  significant imaginary frequency
 writing imag mode distorted coords to xtbhess.xyz
 for further optimization.

           -------------------------------------------------
          | TOTAL ENERGY              -80.931637697531 Eh   |
          | TOTAL ENTHALPY            -80.457560704287 Eh   |
          | TOTAL FREE ENERGY         -80.560445539212 Eh   |
          | GRADIENT NORM               0.000119034369 Eh/α |
          | HOMO-LUMO GAP               5.686266108196 eV   |
           -------------------------------------------------

------------------------------------------------------------------------
 * finished run on 2024/01/10 at 18:33:13.643     
------------------------------------------------------------------------
 total:
 * wall-time:     0 d,  0 h,  0 min, 13.645 sec
 *  cpu-time:     0 d,  0 h,  0 min, 13.554 sec
 * ratio c/w:     0.993 speedup
 SCF:
 * wall-time:     0 d,  0 h,  0 min,  0.109 sec
 *  cpu-time:     0 d,  0 h,  0 min,  0.058 sec
 * ratio c/w:     0.536 speedup
 analytical hessian:
 * wall-time:     0 d,  0 h,  0 min, 13.504 sec
 *  cpu-time:     0 d,  0 h,  0 min, 13.469 sec
 * ratio c/w:     0.997 speedup

