      -----------------------------------------------------------      
     |                   =====================                   |     
     |                           x T B                           |     
     |                   =====================                   |     
     |                         S. Grimme                         |     
     |          Mulliken Center for Theoretical Chemistry        |     
     |                    University of Bonn                     |     
      -----------------------------------------------------------      

   * xtb version 6.6.1 (unknown-commit) compiled by '@Linux' on 12/27/2023

   xtb is free software: you can redistribute it and/or modify it under
   the terms of the GNU Lesser General Public License as published by
   the Free Software Foundation, either version 3 of the License, or
   (at your option) any later version.
   
   xtb is distributed in the hope that it will be useful,
   but WITHOUT ANY WARRANTY; without even the implied warranty of
   MERCHANTABILITY or FITNESS FOR A PARTICULAR PURPOSE.  See the
   GNU Lesser General Public License for more details.
   
   Cite this work as:
   * C. Bannwarth, E. Caldeweyher, S. Ehlert, A. Hansen, P. Pracht,
     J. Seibert, S. Spicher, S. Grimme, WIREs Comput. Mol. Sci., 2020, 11,
     e01493. DOI: 10.1002/wcms.1493
   
   for GFN2-xTB:
   * C. Bannwarth, S. Ehlert and S. Grimme., J. Chem. Theory Comput., 2019,
     15, 1652-1671. DOI: 10.1021/acs.jctc.8b01176
   for GFN1-xTB:
   * S. Grimme, C. Bannwarth, P. Shushkov, J. Chem. Theory Comput., 2017,
     13, 1989-2009. DOI: 10.1021/acs.jctc.7b00118
   for GFN0-xTB:
   * P. Pracht, E. Caldeweyher, S. Ehlert, S. Grimme, ChemRxiv, 2019, preprint.
     DOI: 10.26434/chemrxiv.8326202.v1
   for GFN-FF:
   * S. Spicher and S. Grimme, Angew. Chem. Int. Ed., 2020, 59, 15665-15673.
     DOI: 10.1002/anie.202004239
   
   for ALPB and GBSA implicit solvation:
   * S. Ehlert, M. Stahn, S. Spicher, S. Grimme, J. Chem. Theory Comput.,
     2021, 17, 4250-4261. DOI: 10.1021/acs.jctc.1c00471
   
   for DFT-D4:
   * E. Caldeweyher, C. Bannwarth and S. Grimme, J. Chem. Phys., 2017,
     147, 034112. DOI: 10.1063/1.4993215
   * E. Caldeweyher, S. Ehlert, A. Hansen, H. Neugebauer, S. Spicher,
     C. Bannwarth and S. Grimme, J. Chem. Phys., 2019, 150, 154122.
     DOI: 10.1063/1.5090222
   * E. Caldeweyher, J.-M. Mewes, S. Ehlert and S. Grimme, Phys. Chem. Chem. Phys.
     2020, 22, 8499-8512. DOI: 10.1039/D0CP00502A
   
   for sTDA-xTB:
   * S. Grimme and C. Bannwarth, J. Chem. Phys., 2016, 145, 054103.
     DOI: 10.1063/1.4959605
   
   in the mass-spec context:
   * V. Asgeirsson, C. Bauer and S. Grimme, Chem. Sci., 2017, 8, 4879.
     DOI: 10.1039/c7sc00601b
   * J. Koopman and S. Grimme, ACS Omega 2019, 4, 12, 15120-15133.
     DOI: 10.1021/acsomega.9b02011
   
   for metadynamics refer to:
   * S. Grimme, J. Chem. Theory Comput., 2019, 155, 2847-2862
     DOI: 10.1021/acs.jctc.9b00143
   
   for SPH calculations refer to:
   * S. Spicher and S. Grimme, J. Chem. Theory Comput., 2021, 17, 1701-1714
     DOI: 10.1021/acs.jctc.0c01306
   
   with help from (in alphabetical order)
   P. Atkinson, C. Bannwarth, F. Bohle, G. Brandenburg, E. Caldeweyher
   M. Checinski, S. Dohm, S. Ehlert, S. Ehrlich, I. Gerasimov, C. Hölzer
   A. Katbashev, J. Koopman, C. Lavigne, S. Lehtola, F. März, M. Müller,
   F. Musil, H. Neugebauer, J. Pisarek, C. Plett, P. Pracht, F. Pultar,
   J. Seibert, P. Shushkov, S. Spicher, M. Stahn, M. Steiner, T. Strunk,
   J. Stückrath, T. Rose, and J. Unsleber
   
 * started run on 2024/01/10 at 15:34:52.932     

           -------------------------------------------------
          |                Calculation Setup                |
           -------------------------------------------------

          program call               : xtb struc.xyz --gfn2 --hess
          hostname                   : swaroop
          coordinate file            : struc.xyz
          omp threads                :                     1

   ID    Z sym.   atoms
    1    8 O      1, 23, 31, 39, 47
    2    6 C      2, 5, 9, 13, 17, 22, 30, 38, 46
    3    1 H      3, 4, 6, 7, 10-12, 14-16, 18-21, 25, 26, 28, 29, 33, 34,
                  36, 37, 41, 42, 44, 45, 49, 50, 52, 53
    4    7 N      8, 24, 27, 32, 35, 40, 43, 48, 51

molecular fragmentation (1/2 indicates fragments):
11111111111111111111122222222222222222222222222222222
# atoms in fragment 1/2:    21    32
 fragment masses (1/2) :      104.17      240.22
CMA distance (Bohr)    :   5.682
constraining FC (au)   :  0.0500

           -------------------------------------------------
          |                 G F N 2 - x T B                 |
           -------------------------------------------------

        Reference                      10.1021/acs.jctc.8b01176
      * Hamiltonian:
        H0-scaling (s, p, d)           1.850000    2.230000    2.230000
        zeta-weighting                 0.500000
      * Dispersion:
        s8                             2.700000
        a1                             0.520000
        a2                             5.000000
        s9                             5.000000
      * Repulsion:
        kExp                           1.500000    1.000000
        rExp                           1.000000
      * Coulomb:
        alpha                          2.000000
        third order                    shell-resolved
        anisotropic                    true
        a3                             3.000000
        a5                             4.000000
        cn-shift                       1.200000
        cn-exp                         4.000000
        max-rad                        5.000000


          ...................................................
          :                      SETUP                      :
          :.................................................:
          :  # basis functions                 122          :
          :  # atomic orbitals                 122          :
          :  # shells                           76          :
          :  # electrons                       140          :
          :  max. iterations                   250          :
          :  Hamiltonian                  GFN2-xTB          :
          :  restarted?                      false          :
          :  GBSA solvation                  false          :
          :  PC potential                    false          :
          :  electronic temp.          300.0000000     K    :
          :  accuracy                    1.0000000          :
          :  -> integral cutoff          0.2500000E+02      :
          :  -> integral neglect         0.1000000E-07      :
          :  -> SCF convergence          0.1000000E-05 Eh   :
          :  -> wf. convergence          0.1000000E-03 e    :
          :  Broyden damping             0.4000000          :
          ...................................................

 iter      E             dE          RMSdq      gap      omega  full diag
   1    -81.5509972 -0.815510E+02  0.434E+00    5.21       0.0  T
   2    -81.8389707 -0.287974E+00  0.236E+00    5.95       1.0  T
   3    -81.8448017 -0.583097E-02  0.115E+00    5.52       1.0  T
   4    -81.8461826 -0.138094E-02  0.250E-01    5.49       1.0  T
   5    -81.8471690 -0.986374E-03  0.923E-02    5.40       1.0  T
   6    -81.8471947 -0.257410E-04  0.265E-02    5.42       1.0  T
   7    -81.8471988 -0.406865E-05  0.791E-03    5.42       1.7  T
   8    -81.8471991 -0.332763E-06  0.261E-03    5.42       5.3  T
   9    -81.8471992 -0.117716E-07  0.848E-04    5.42      16.2  T
  10    -81.8471992 -0.397335E-08  0.173E-04    5.42      79.6  T

   *** convergence criteria satisfied after 10 iterations ***

         #    Occupation            Energy/Eh            Energy/eV
      -------------------------------------------------------------
         1        2.0000           -0.7928847             -21.5755
       ...           ...                  ...                  ...
        64        2.0000           -0.4952514             -13.4765
        65        2.0000           -0.4935832             -13.4311
        66        2.0000           -0.4921324             -13.3916
        67        2.0000           -0.4898747             -13.3302
        68        2.0000           -0.4800652             -13.0632
        69        2.0000           -0.4758014             -12.9472
        70        2.0000           -0.4701934             -12.7946 (HOMO)
        71                         -0.2711315              -7.3779 (LUMO)
        72                         -0.2674357              -7.2773
        73                         -0.2616422              -7.1196
        74                         -0.2431021              -6.6151
        75                         -0.1487786              -4.0485
       ...                                ...                  ...
       122                          0.5811329              15.8134
      -------------------------------------------------------------
                  HL-Gap            0.1990619 Eh            5.4167 eV
             Fermi-level           -0.3706624 Eh          -10.0862 eV

 SCC (total)                   0 d,  0 h,  0 min,  0.101 sec
 SCC setup                      ...        0 min,  0.000 sec (  0.281%)
 Dispersion                     ...        0 min,  0.001 sec (  0.584%)
 classical contributions        ...        0 min,  0.000 sec (  0.178%)
 integral evaluation            ...        0 min,  0.007 sec (  7.290%)
 iterations                     ...        0 min,  0.066 sec ( 65.170%)
 molecular gradient             ...        0 min,  0.027 sec ( 26.217%)
 printout                       ...        0 min,  0.000 sec (  0.268%)

         :::::::::::::::::::::::::::::::::::::::::::::::::::::
         ::                     SUMMARY                     ::
         :::::::::::::::::::::::::::::::::::::::::::::::::::::
         :: total energy             -80.931267991168 Eh    ::
         :: gradient norm              0.000105210950 Eh/a0 ::
         :: HOMO-LUMO gap              5.416749839182 eV    ::
         ::.................................................::
         :: SCC energy               -81.847199158666 Eh    ::
         :: -> isotropic ES            0.294200267542 Eh    ::
         :: -> anisotropic ES         -0.027256669673 Eh    ::
         :: -> anisotropic XC          0.020452115819 Eh    ::
         :: -> dispersion             -0.040993082406 Eh    ::
         :: repulsion energy           0.915087044239 Eh    ::
         :: add. restraining           0.000000000000 Eh    ::
         :: total charge               1.000000000000 e     ::
         :::::::::::::::::::::::::::::::::::::::::::::::::::::

           ------------------------------------------------- 
          |                Numerical Hessian                |
           ------------------------------------------------- 
step length          :   0.00500
SCC accuracy         :   0.30000
Hessian scale factor :   1.00000
frozen atoms in %    :   0.00000    0
RMS gradient         :   0.00010
estimated CPU  time      0.23 min
estimated wall time      0.23 min

writing file <hessian>.

 projected vibrational frequencies (cm⁻¹)
eigval :       -0.00    -0.00    -0.00     0.00     0.00     0.00
eigval :        3.18     7.92     9.59    10.83    17.38    22.05
eigval :       28.47    33.82    39.15    40.92    49.39    52.68
eigval :       63.97    69.10    77.00    83.07    96.89   106.90
eigval :      117.39   123.71   129.17   152.52   160.63   178.76
eigval :      193.33   225.44   230.65   244.24   245.97   260.24
eigval :      262.78   302.77   309.89   338.92   357.82   366.41
eigval :      376.79   400.04   425.53   428.89   445.49   447.82
eigval :      456.62   457.92   459.19   472.31   480.58   486.07
eigval :      495.38   499.91   504.41   525.80   534.64   545.16
eigval :      549.96   558.93   566.40   631.47   668.39   674.00
eigval :      674.76   679.05   710.81   740.52   765.53   782.53
eigval :      905.72   924.94   951.59   961.85   963.54   985.20
eigval :      996.41   999.20  1014.29  1016.70  1017.49  1023.44
eigval :     1026.41  1034.16  1040.67  1083.49  1083.60  1087.87
eigval :     1093.03  1106.07  1112.61  1127.06  1168.12  1228.01
eigval :     1247.13  1273.45  1317.17  1330.72  1338.96  1350.25
eigval :     1352.41  1354.95  1368.44  1382.49  1399.35  1407.20
eigval :     1416.70  1434.99  1439.19  1442.79  1444.91  1452.22
eigval :     1454.65  1457.41  1458.05  1466.78  1470.87  1480.21
eigval :     1489.37  1494.91  1508.81  1512.74  1515.06  1663.51
eigval :     1689.95  1700.48  1728.80  2898.86  2982.83  2997.20
eigval :     3015.70  3022.28  3030.89  3033.15  3038.62  3041.75
eigval :     3042.79  3048.34  3055.65  3062.35  3183.78  3227.60
eigval :     3272.41  3393.06  3452.26  3494.75  3498.42  3499.44
eigval :     3501.58  3533.26  3537.11  3549.55  3558.17  3563.46
eigval :     3564.59  3566.57  3568.37
           -------------------------------------------------
          |                Property Printout                |
           -------------------------------------------------

    * Orbital Energies and Occupations

         #    Occupation            Energy/Eh            Energy/eV
      -------------------------------------------------------------
         1        2.0000           -0.7928839             -21.5755
       ...           ...                  ...                  ...
        58        2.0000           -0.5047880             -13.7360
        59        2.0000           -0.5028904             -13.6843
        60        2.0000           -0.5014183             -13.6443
        61        2.0000           -0.4993746             -13.5887
        62        2.0000           -0.4986152             -13.5680
        63        2.0000           -0.4958683             -13.4933
        64        2.0000           -0.4952534             -13.4765
        65        2.0000           -0.4935835             -13.4311
        66        2.0000           -0.4921308             -13.3916
        67        2.0000           -0.4898772             -13.3302
        68        2.0000           -0.4800684             -13.0633
        69        2.0000           -0.4758045             -12.9473
        70        2.0000           -0.4701964             -12.7947 (HOMO)
        71                         -0.2711326              -7.3779 (LUMO)
        72                         -0.2674368              -7.2773
        73                         -0.2616448              -7.1197
        74                         -0.2431041              -6.6152
        75                         -0.1487775              -4.0484
        76                         -0.1007998              -2.7429
        77                         -0.0899961              -2.4489
        78                         -0.0827658              -2.2522
        79                         -0.0774826              -2.1084
        80                         -0.0703696              -1.9149
        81                         -0.0641197              -1.7448
       ...                                ...                  ...
       122                          0.5811308              15.8134
      -------------------------------------------------------------
                  HL-Gap            0.1990638 Eh            5.4168 eV
             Fermi-level           -0.3706645 Eh          -10.0863 eV

     #   Z          covCN         q      C6AA      α(0)
     1   8 O        1.654    -0.463    22.113     6.348
     2   6 C        3.673     0.073    19.586     6.342
     3   1 H        0.924     0.057     2.229     2.335
     4   1 H        0.923     0.047     2.360     2.402
     5   6 C        3.768    -0.072    21.918     6.672
     6   1 H        0.924     0.104     1.753     2.071
     7   1 H        0.924     0.115     1.651     2.009
     8   7 N        3.623     0.159    18.567     6.400
     9   6 C        3.735    -0.118    22.850     6.822
    10   1 H        0.925     0.122     1.600     1.978
    11   1 H        0.925     0.080     1.981     2.201
    12   1 H        0.925     0.114     1.660     2.015
    13   6 C        3.723    -0.107    22.656     6.797
    14   1 H        0.925     0.091     1.866     2.136
    15   1 H        0.925     0.082     1.961     2.190
    16   1 H        0.924     0.126     1.567     1.958
    17   6 C        3.721    -0.107    22.671     6.800
    18   1 H        0.925     0.114     1.661     2.016
    19   1 H        0.925     0.106     1.728     2.056
    20   1 H        0.925     0.078     2.001     2.212
    21   1 H        0.803     0.329     0.639     1.256
    22   6 C        2.675     0.341    21.199     7.534
    23   8 O        0.859    -0.555    25.045     6.710
    24   7 N        2.650    -0.296    27.616     7.805
    25   1 H        0.861     0.187     1.177     1.699
    26   1 H        0.860     0.218     1.020     1.582
    27   7 N        2.650    -0.305    27.851     7.838
    28   1 H        0.860     0.219     1.012     1.576
    29   1 H        0.861     0.184     1.193     1.711
    30   6 C        2.675     0.347    21.109     7.518
    31   8 O        0.860    -0.510    24.015     6.570
    32   7 N        2.645    -0.291    27.502     7.789
    33   1 H        0.860     0.200     1.108     1.649
    34   1 H        0.861     0.186     1.180     1.702
    35   7 N        2.645    -0.288    27.429     7.778
    36   1 H        0.861     0.186     1.178     1.700
    37   1 H        0.860     0.202     1.096     1.640
    38   6 C        2.675     0.342    21.193     7.533
    39   8 O        0.861    -0.531    24.477     6.633
    40   7 N        2.644    -0.284    27.329     7.764
    41   1 H        0.860     0.207     1.071     1.621
    42   1 H        0.861     0.187     1.175     1.698
    43   7 N        2.643    -0.309    27.954     7.852
    44   1 H        0.861     0.179     1.218     1.729
    45   1 H        0.860     0.240     0.922     1.504
    46   6 C        2.675     0.341    21.210     7.536
    47   8 O        0.861    -0.536    24.607     6.651
    48   7 N        2.644    -0.309    27.945     7.851
    49   1 H        0.860     0.242     0.915     1.498
    50   1 H        0.861     0.179     1.220     1.730
    51   7 N        2.644    -0.289    27.452     7.782
    52   1 H        0.861     0.185     1.188     1.707
    53   1 H        0.860     0.201     1.101     1.644

 Mol. C6AA /au·bohr⁶  :      21792.421048
 Mol. C8AA /au·bohr⁸  :     454211.139807
 Mol. α(0) /au        :        220.551059


Wiberg/Mayer (AO) data.
largest (>0.10) Wiberg bond orders for each atom

 ---------------------------------------------------------------------------
     #   Z sym  total        # sym  WBO       # sym  WBO       # sym  WBO
 ---------------------------------------------------------------------------
     1   8 O    1.960 --     2 C    1.021    21 H    0.833
     2   6 C    3.965 --     1 O    1.021     5 C    0.993     3 H    0.966
                             4 H    0.962
     3   1 H    0.996 --     2 C    0.966
     4   1 H    0.997 --     2 C    0.962
     5   6 C    3.927 --     2 C    0.993     6 H    0.958     7 H    0.952
                             8 N    0.932
     6   1 H    0.989 --     5 C    0.958
     7   1 H    0.987 --     5 C    0.952
     8   7 N    3.823 --    13 C    0.960    17 C    0.960     9 C    0.954
                             5 C    0.932
     9   6 C    3.917 --    11 H    0.978    12 H    0.962    10 H    0.961
                             8 N    0.954
    10   1 H    0.985 --     9 C    0.961
    11   1 H    0.993 --     9 C    0.978
    12   1 H    0.987 --     9 C    0.962
    13   6 C    3.927 --    15 H    0.978    14 H    0.974     8 N    0.960
                            16 H    0.958
    14   1 H    0.992 --    13 C    0.974
    15   1 H    0.993 --    13 C    0.978
    16   1 H    0.984 --    13 C    0.958
    17   6 C    3.927 --    20 H    0.979    19 H    0.969    18 H    0.964
                             8 N    0.960
    18   1 H    0.987 --    17 C    0.964
    19   1 H    0.989 --    17 C    0.969
    20   1 H    0.994 --    17 C    0.979
    21   1 H    0.891 --     1 O    0.833
    22   6 C    3.959 --    23 O    1.498    24 N    1.231    27 N    1.223
    23   8 O    1.858 --    22 C    1.498    24 N    0.141    27 N    0.138
    24   7 N    3.338 --    22 C    1.231    25 H    0.948    26 H    0.918
                            23 O    0.141
    25   1 H    0.965 --    24 N    0.948
    26   1 H    0.952 --    24 N    0.918
    27   7 N    3.321 --    22 C    1.223    29 H    0.948    28 H    0.908
                            23 O    0.138
    28   1 H    0.952 --    27 N    0.908
    29   1 H    0.966 --    27 N    0.948
    30   6 C    3.959 --    31 O    1.540    35 N    1.208    32 N    1.203
    31   8 O    1.921 --    30 C    1.540    32 N    0.143    35 N    0.143
    32   7 N    3.317 --    30 C    1.203    34 H    0.947    33 H    0.943
                            31 O    0.143
    33   1 H    0.960 --    32 N    0.943
    34   1 H    0.965 --    32 N    0.947
    35   7 N    3.322 --    30 C    1.208    36 H    0.946    37 H    0.942
                            31 O    0.143
    36   1 H    0.965 --    35 N    0.946
    37   1 H    0.959 --    35 N    0.942
    38   6 C    3.960 --    39 O    1.469    43 N    1.249    40 N    1.226
    39   8 O    1.903 --    38 C    1.469    43 N    0.137    40 N    0.130
    40   7 N    3.341 --    38 C    1.226    42 H    0.946    41 H    0.940
                            39 O    0.130
    41   1 H    0.957 --    40 N    0.940
    42   1 H    0.965 --    40 N    0.946
    43   7 N    3.337 --    38 C    1.249    44 H    0.948    45 H    0.871
                            39 O    0.137
    44   1 H    0.968 --    43 N    0.948
    45   1 H    0.942 --    43 N    0.871
    46   6 C    3.960 --    47 O    1.483    48 N    1.253    51 N    1.212
    47   8 O    1.890 --    46 C    1.483    48 N    0.144    51 N    0.131
    48   7 N    3.342 --    46 C    1.253    50 H    0.948    49 H    0.872
                            47 O    0.144
    49   1 H    0.941 --    48 N    0.872
    50   1 H    0.968 --    48 N    0.948
    51   7 N    3.327 --    46 C    1.212    52 H    0.947    53 H    0.943
                            47 O    0.131
    52   1 H    0.966 --    51 N    0.947
    53   1 H    0.959 --    51 N    0.943
 ---------------------------------------------------------------------------

Topologies differ in total number of bonds
Writing topology from bond orders to xtbtopo.mol

molecular dipole:
                 x           y           z       tot (Debye)
 q only:        1.030       0.071      -0.117
   full:        0.985       0.664       0.339       3.139
molecular quadrupole (traceless):
                xx          xy          yy          xz          yz          zz
 q only:      -39.062      53.179      59.098     -30.872     -43.910     -20.036
  q+dip:      -46.173      61.818      67.205     -37.678     -53.439     -21.031
   full:      -46.101      61.904      67.199     -38.041     -53.466     -21.097

           -------------------------------------------------
          |               Frequency Printout                |
           -------------------------------------------------
 projected vibrational frequencies (cm⁻¹)
eigval :       -0.00    -0.00    -0.00     0.00     0.00     0.00
eigval :        3.18     7.92     9.59    10.83    17.38    22.05
eigval :       28.47    33.82    39.15    40.92    49.39    52.68
eigval :       63.97    69.10    77.00    83.07    96.89   106.90
eigval :      117.39   123.71   129.17   152.52   160.63   178.76
eigval :      193.33   225.44   230.65   244.24   245.97   260.24
eigval :      262.78   302.77   309.89   338.92   357.82   366.41
eigval :      376.79   400.04   425.53   428.89   445.49   447.82
eigval :      456.62   457.92   459.19   472.31   480.58   486.07
eigval :      495.38   499.91   504.41   525.80   534.64   545.16
eigval :      549.96   558.93   566.40   631.47   668.39   674.00
eigval :      674.76   679.05   710.81   740.52   765.53   782.53
eigval :      905.72   924.94   951.59   961.85   963.54   985.20
eigval :      996.41   999.20  1014.29  1016.70  1017.49  1023.44
eigval :     1026.41  1034.16  1040.67  1083.49  1083.60  1087.87
eigval :     1093.03  1106.07  1112.61  1127.06  1168.12  1228.01
eigval :     1247.13  1273.45  1317.17  1330.72  1338.96  1350.25
eigval :     1352.41  1354.95  1368.44  1382.49  1399.35  1407.20
eigval :     1416.70  1434.99  1439.19  1442.79  1444.91  1452.22
eigval :     1454.65  1457.41  1458.05  1466.78  1470.87  1480.21
eigval :     1489.37  1494.91  1508.81  1512.74  1515.06  1663.51
eigval :     1689.95  1700.48  1728.80  2898.86  2982.83  2997.20
eigval :     3015.70  3022.28  3030.89  3033.15  3038.62  3041.75
eigval :     3042.79  3048.34  3055.65  3062.35  3183.78  3227.60
eigval :     3272.41  3393.06  3452.26  3494.75  3498.42  3499.44
eigval :     3501.58  3533.26  3537.11  3549.55  3558.17  3563.46
eigval :     3564.59  3566.57  3568.37
 reduced masses (amu)
   1: 12.31   2: 12.80   3: 12.74   4: 12.65   5: 12.82   6: 12.20   7: 11.18   8: 12.22
   9: 12.32  10: 11.83  11: 11.89  12: 12.23  13: 12.64  14: 12.80  15: 12.61  16: 12.59
  17: 12.71  18: 12.94  19: 12.71  20: 13.31  21: 12.41  22: 11.36  23: 11.10  24: 12.68
  25: 12.86  26: 12.76  27: 11.88  28: 12.85  29: 12.99  30: 13.06  31:  9.46  32: 10.70
  33:  3.33  34:  4.45  35:  3.72  36:  3.49  37:  5.24  38:  5.54  39:  8.10  40:  4.16
  41:  3.70  42:  5.48  43:  3.66  44:  3.37  45:  7.13  46:  4.56  47:  2.57  48:  2.36
  49:  7.89  50:  8.70  51:  8.46  52:  7.79  53:  4.93  54:  5.60  55:  1.68  56:  5.05
  57:  7.20  58: 11.04  59:  9.14  60: 11.36  61: 11.59  62:  8.49  63:  1.75  64:  3.35
  65: 10.14  66: 11.45  67: 12.07  68: 10.87  69:  3.51  70:  2.05  71:  9.12  72:  2.13
  73:  6.85  74:  8.62  75:  5.15  76:  4.99  77:  5.12  78:  5.11  79:  8.98  80:  7.47
  81:  8.09  82:  9.12  83:  8.47  84:  9.27  85:  6.38  86:  6.42  87:  3.10  88:  8.79
  89:  9.43  90:  8.49  91:  7.17  92:  4.07  93:  8.99  94:  8.51  95:  2.77  96:  5.15
  97:  7.00  98:  8.20  99:  5.81 100:  3.71 101:  4.80 102:  4.53 103:  6.15 104:  4.31
 105:  3.90 106:  3.80 107:  2.54 108:  2.54 109:  2.08 110:  2.49 111:  3.17 112:  1.86
 113:  3.27 114:  1.97 115:  2.90 116:  1.63 117:  2.83 118:  1.71 119:  1.63 120:  1.60
 121:  1.72 122:  7.98 123:  9.24 124:  9.52 125:  9.72 126: 12.29 127: 12.71 128: 12.72
 129: 12.86 130:  1.76 131:  1.67 132:  1.71 133:  1.69 134:  1.84 135:  1.42 136:  1.95
 137:  1.58 138:  1.89 139:  1.80 140:  1.79 141:  1.73 142:  1.71 143:  1.80 144:  1.80
 145:  1.87 146:  1.65 147:  1.57 148:  1.44 149:  1.46 150:  1.45 151:  1.45 152:  1.91
 153:  1.91 154:  2.00 155:  2.19 156:  2.16 157:  2.09 158:  2.19 159:  2.19
 IR intensities (km·mol⁻¹)
   1:  0.37   2:  1.01   3:  1.64   4:  2.45   5:  1.43   6:  1.98   7:  0.23   8:  0.82
   9:  0.48  10:  2.10  11:  2.20  12:  1.19  13:  1.70  14:  1.57  15:  2.31  16:  0.85
  17:  0.50  18:  3.66  19:  3.58  20:  6.54  21:  1.34  22:  5.79  23:  8.53  24: 12.60
  25:  7.29  26:  4.88  27: 19.11  28:  1.11  29:  5.40  30: 38.61  31:  4.75  32:  8.83
  33:211.37  34:158.29  35: 24.02  36: 21.11  37:  4.69  38:  3.42  39:  1.70  40:  0.12
  41:473.12  42:  2.10  43:  0.74  44:142.08  45:110.75  46:308.43  47:331.33  48: 10.30
  49:  6.43  50:  1.31  51:  9.90  52: 10.75  53: 23.60  54: 39.11  55:  6.24  56: 45.99
  57: 73.73  58: 31.91  59: 47.00  60:  5.45  61: 25.37  62:  6.44  63:  0.82  64:132.24
  65: 26.56  66: 43.37  67: 87.04  68:  4.13  69:189.11  70: 63.59  71:  2.20  72:359.04
  73:  4.45  74:  7.46  75:  2.15  76: 10.09  77:  0.23  78:  2.36  79:  0.15  80: 15.66
  81: 16.34  82:  4.07  83: 20.29  84:  0.41  85: 21.31  86: 13.05  87:  2.42  88:  0.49
  89:  1.55  90:  4.24  91: 25.87  92: 25.54  93:  2.39  94: 44.31  95:  9.83  96:  8.71
  97:  3.06  98:  2.42  99: 11.82 100:  0.42 101: 33.59 102: 51.52 103:116.16 104: 73.10
 105:113.84 106: 41.57 107: 14.73 108: 12.00 109:  7.81 110: 28.85 111:  3.38 112:  7.78
 113: 11.71 114:  8.40 115:  4.25 116:  5.10 117: 26.07 118:  7.63 119:  5.56 120: 42.21
 121:  6.84 122:347.92 123:259.42 124:649.20 125:792.91 126:624.23 127:907.61 128:******
 129:209.94 130: 31.38 131: 37.86 132: 13.00 133: 31.63 134:  5.35 135: 31.81 136: 62.37
 137: 11.22 138:  1.89 139:  2.21 140: 19.91 141:  4.14 142:  2.45 143: 31.24 144:******
 145:823.39 146:214.95 147:274.48 148: 40.45 149:  2.68 150: 28.29 151: 22.09 152: 17.20
 153: 14.13 154: 23.62 155: 13.93 156:  2.40 157: 51.14 158: 17.53 159: 16.91
 Raman intensities (amu)
Refinement of some symmetry elements was terminated before convergence was reached.
Some symmetry elements may remain unidentified.
Molecule has no symmetry elements
It seems to be the C1 point group
   1:  0.00   2:  0.00   3:  0.00   4:  0.00   5:  0.00   6:  0.00   7:  0.00   8:  0.00
   9:  0.00  10:  0.00  11:  0.00  12:  0.00  13:  0.00  14:  0.00  15:  0.00  16:  0.00
  17:  0.00  18:  0.00  19:  0.00  20:  0.00  21:  0.00  22:  0.00  23:  0.00  24:  0.00
  25:  0.00  26:  0.00  27:  0.00  28:  0.00  29:  0.00  30:  0.00  31:  0.00  32:  0.00
  33:  0.00  34:  0.00  35:  0.00  36:  0.00  37:  0.00  38:  0.00  39:  0.00  40:  0.00
  41:  0.00  42:  0.00  43:  0.00  44:  0.00  45:  0.00  46:  0.00  47:  0.00  48:  0.00
  49:  0.00  50:  0.00  51:  0.00  52:  0.00  53:  0.00  54:  0.00  55:  0.00  56:  0.00
  57:  0.00  58:  0.00  59:  0.00  60:  0.00  61:  0.00  62:  0.00  63:  0.00  64:  0.00
  65:  0.00  66:  0.00  67:  0.00  68:  0.00  69:  0.00  70:  0.00  71:  0.00  72:  0.00
  73:  0.00  74:  0.00  75:  0.00  76:  0.00  77:  0.00  78:  0.00  79:  0.00  80:  0.00
  81:  0.00  82:  0.00  83:  0.00  84:  0.00  85:  0.00  86:  0.00  87:  0.00  88:  0.00
  89:  0.00  90:  0.00  91:  0.00  92:  0.00  93:  0.00  94:  0.00  95:  0.00  96:  0.00
  97:  0.00  98:  0.00  99:  0.00 100:  0.00 101:  0.00 102:  0.00 103:  0.00 104:  0.00
 105:  0.00 106:  0.00 107:  0.00 108:  0.00 109:  0.00 110:  0.00 111:  0.00 112:  0.00
 113:  0.00 114:  0.00 115:  0.00 116:  0.00 117:  0.00 118:  0.00 119:  0.00 120:  0.00
 121:  0.00 122:  0.00 123:  0.00 124:  0.00 125:  0.00 126:  0.00 127:  0.00 128:  0.00
 129:  0.00 130:  0.00 131:  0.00 132:  0.00 133:  0.00 134:  0.00 135:  0.00 136:  0.00
 137:  0.00 138:  0.00 139:  0.00 140:  0.00 141:  0.00 142:  0.00 143:  0.00 144:  0.00
 145:  0.00 146:  0.00 147:  0.00 148:  0.00 149:  0.00 150:  0.00 151:  0.00 152:  0.00
 153:  0.00 154:  0.00 155:  0.00 156:  0.00 157:  0.00 158:  0.00 159:  0.00
 output can be read by thermo (or use thermo option).
 writing <g98.out> molden fake output.
 recommended (thermochemical) frequency scaling factor: 1.0
           -------------------------------------------------
          |             Thermodynamic Functions             |
           -------------------------------------------------

c1  symmetry found (for desy threshold:  0.10E+00) used in thermo

          ...................................................
          :                      SETUP                      :
          :.................................................:
          :  # frequencies                         153      :
          :  # imaginary freq.                       0      :
          :  linear?                             false      :
          :  only rotor calc.                    false      :
          :  symmetry                               c1      :
          :  rotational number                       1      :
          :  scaling factor                  1.0000000      :
          :  rotor cutoff                   50.0000000 cm⁻¹ :
          :  imag. cutoff                  -20.0000000 cm⁻¹ :
          :.................................................:

    mode    ω/cm⁻¹     T·S(HO)/kcal·mol⁻¹    T·S(FR)/kcal·mol⁻¹   T·S(vib)
   ------------------------------------------------------------------------
       1      3.18    -3.06661 (  0.00%)    -1.87213 (100.00%)    -1.87215
       2      7.92    -2.52640 (  0.06%)    -1.60218 ( 99.94%)    -1.60276
       3      9.59    -2.41317 (  0.14%)    -1.54558 ( 99.86%)    -1.54675
       4     10.83    -2.34106 (  0.22%)    -1.50953 ( 99.78%)    -1.51136
       5     17.38    -2.06108 (  1.44%)    -1.36952 ( 98.56%)    -1.37947
       6     22.05    -1.92023 (  3.64%)    -1.29905 ( 96.36%)    -1.32169
       7     28.47    -1.76908 (  9.51%)    -1.22339 ( 90.49%)    -1.27527
       8     33.82    -1.66713 ( 17.31%)    -1.17232 ( 82.69%)    -1.25799
       9     39.15    -1.58064 ( 27.33%)    -1.12897 ( 72.67%)    -1.25239
      10     40.92    -1.55458 ( 30.97%)    -1.11590 ( 69.03%)    -1.25174
      11     49.39    -1.44358 ( 48.77%)    -1.06019 ( 51.23%)    -1.24715
      12     52.68    -1.40551 ( 55.21%)    -1.04106 ( 44.79%)    -1.24225
      13     63.97    -1.29126 ( 72.82%)    -0.98356 ( 27.18%)    -1.20762
      14     69.10    -1.24590 ( 78.49%)    -0.96068 ( 21.51%)    -1.18454
      15     77.00    -1.18247 ( 84.90%)    -0.92864 ( 15.10%)    -1.14415
      16     83.07    -1.13805 ( 88.40%)    -0.90616 ( 11.60%)    -1.11114
      17     96.89    -1.04828 ( 93.38%)    -0.86057 (  6.62%)    -1.03585
      18    106.90    -0.99119 ( 95.43%)    -0.83144 (  4.57%)    -0.98389
      19    117.39    -0.93705 ( 96.81%)    -0.80370 (  3.19%)    -0.93280
      20    123.71    -0.90684 ( 97.40%)    -0.78817 (  2.60%)    -0.90376
      21    129.17    -0.88205 ( 97.80%)    -0.77539 (  2.20%)    -0.87971
      22    152.52    -0.78727 ( 98.86%)    -0.72615 (  1.14%)    -0.78657
      23    160.63    -0.75800 ( 99.07%)    -0.71080 (  0.93%)    -0.75756
      24    178.76    -0.69805 ( 99.39%)    -0.67912 (  0.61%)    -0.69794
      25    193.33    -0.65464 ( 99.55%)    -0.65592 (  0.45%)    -0.65465
      26    225.44    -0.57095 ( 99.76%)    -0.61040 (  0.24%)    -0.57105
      27    230.65    -0.55870 ( 99.78%)    -0.60363 (  0.22%)    -0.55880
      28    244.24    -0.52825 ( 99.82%)    -0.58667 (  0.18%)    -0.52835
      29    245.97    -0.52453 ( 99.83%)    -0.58458 (  0.17%)    -0.52463
      30    260.24    -0.49498 ( 99.86%)    -0.56787 (  0.14%)    -0.49508
      31    262.78    -0.48994 ( 99.87%)    -0.56500 (  0.13%)    -0.49003
   ------------------------------------------------------------------------

   temp. (K)  partition function   enthalpy   heat capacity  entropy
                                   cal/mol     cal/K/mol   cal/K/mol   J/K/mol
 298.15  VIB  0.140E+21            19883.719    102.488    134.636
         ROT  0.198E+08              888.752      2.981     36.366
         INT  0.277E+28            20772.472    105.469    171.002
         TR   0.618E+28             1481.254      4.968     43.384
         TOT                       22253.7255   110.4370   214.3868   896.9945

       T/K    H(0)-H(T)+PV         H(T)/Eh          T*S/Eh         G(T)/Eh
   ------------------------------------------------------------------------
    298.15    0.354636E-01    0.473986E+00    0.101862E+00    0.372124E+00
   ------------------------------------------------------------------------

         :::::::::::::::::::::::::::::::::::::::::::::::::::::
         ::                  THERMODYNAMIC                  ::
         :::::::::::::::::::::::::::::::::::::::::::::::::::::
         :: total free energy         -80.559144255781 Eh   ::
         ::.................................................::
         :: total energy              -80.931267991466 Eh   ::
         :: zero point energy           0.438522270271 Eh   ::
         :: G(RRHO) w/o ZPVE           -0.066398534586 Eh   ::
         :: G(RRHO) contrib.            0.372123735685 Eh   ::
         :::::::::::::::::::::::::::::::::::::::::::::::::::::

           -------------------------------------------------
          | TOTAL ENERGY              -80.931267991466 Eh   |
          | TOTAL ENTHALPY            -80.457282152241 Eh   |
          | TOTAL FREE ENERGY         -80.559144255781 Eh   |
          | GRADIENT NORM               0.000104923919 Eh/α |
          | HOMO-LUMO GAP               5.416801683232 eV   |
           -------------------------------------------------

------------------------------------------------------------------------
 * finished run on 2024/01/10 at 15:35:06.956     
------------------------------------------------------------------------
 total:
 * wall-time:     0 d,  0 h,  0 min, 14.023 sec
 *  cpu-time:     0 d,  0 h,  0 min, 13.951 sec
 * ratio c/w:     0.995 speedup
 SCF:
 * wall-time:     0 d,  0 h,  0 min,  0.102 sec
 *  cpu-time:     0 d,  0 h,  0 min,  0.056 sec
 * ratio c/w:     0.547 speedup
 analytical hessian:
 * wall-time:     0 d,  0 h,  0 min, 13.895 sec
 *  cpu-time:     0 d,  0 h,  0 min, 13.869 sec
 * ratio c/w:     0.998 speedup

