 Entering Gaussian System
 *********************************************
 Gaussian 98:
 frequency output generated by the xtb code
 *********************************************
                         Standard orientation:
 --------------------------------------------------------------------
  Center     Atomic     Atomic              Coordinates (Angstroms)
  Number     Number      Type              X           Y           Z
 --------------------------------------------------------------------
    1          8             0        0.091337    0.488172    1.679019
    2          6             0        1.057834   -0.469037    1.363839
    3          1             0        1.896506   -0.413202    2.076311
    4          1             0        0.583524   -1.445681    1.486376
    5          6             0        1.679172   -0.308771   -0.026284
    6          1             0        2.508308   -1.012928   -0.121937
    7          1             0        2.047997    0.716929   -0.102399
    8          7             0        0.780709   -0.543799   -1.190587
    9          6             0        0.243226   -1.913827   -1.173497
   10          1             0        1.064161   -2.613612   -1.028819
   11          1             0       -0.244310   -2.122559   -2.123467
   12          1             0       -0.502387   -2.015510   -0.385795
   13          6             0        1.599052   -0.373644   -2.402690
   14          1             0        2.402943   -1.108973   -2.393334
   15          1             0        2.022585    0.628319   -2.428212
   16          1             0        0.986691   -0.519994   -3.290254
   17          6             0       -0.329222    0.419766   -1.203734
   18          1             0       -0.901328    0.314624   -2.122562
   19          1             0        0.058407    1.433626   -1.122238
   20          1             0       -0.984207    0.234627   -0.355385
   21          1             0        0.402491    1.359404    1.353162
   22          6             0        4.248718   -3.514192   -1.194950
   23          8             0        3.324318   -2.712382   -1.212085
   24          7             0        4.091131   -4.805457   -1.572242
   25          1             0        3.211443   -5.087929   -1.965433
   26          1             0        4.867628   -5.436104   -1.650959
   27          7             0        5.495145   -3.169996   -0.793182
   28          1             0        6.233419   -3.843482   -0.703942
   29          1             0        5.648367   -2.246836   -0.429502
   30          6             0        0.440049    3.834592    0.640747
   31          8             0        0.994810    2.758119    0.417326
   32          7             0        1.160671    4.974973    0.780867
   33          1             0        2.162268    4.906492    0.800059
   34          1             0        0.738903    5.843313    1.054191
   35          7             0       -0.894668    3.955959    0.730653
   36          1             0       -1.320972    4.844467    0.919285
   37          1             0       -1.504285    3.156581    0.588984
   38          6             0       -2.295257   -1.214494    1.864165
   39          8             0       -2.275072   -1.507381    0.666126
   40          7             0       -1.946902   -2.131130    2.805750
   41          1             0       -1.877681   -3.092877    2.521129
   42          1             0       -2.107427   -1.948740    3.780101
   43          7             0       -2.672845   -0.003149    2.308344
   44          1             0       -2.462727    0.256770    3.255712
   45          1             0       -2.686588    0.757052    1.628192
   46          6             0       -3.638007    1.524451   -0.634641
   47          8             0       -2.849618    1.925463    0.223671
   48          7             0       -4.405485    2.394083   -1.340238
   49          1             0       -4.410745    3.358823   -1.061403
   50          1             0       -5.133684    2.078603   -1.954613
   51          7             0       -3.729587    0.226744   -0.969516
   52          1             0       -4.464502   -0.099171   -1.570643
   53          1             0       -3.227161   -0.462219   -0.399069
 --------------------------------------------------------------------
     1 basis functions        1 primitive gaussians
     1 alpha electrons        1 beta electrons

 Harmonic frequencies (cm**-1), IR intensities (km*mol⁻¹),
 Raman scattering activities (A**4/amu), Raman depolarization ratios,
 reduced masses (AMU), force constants (mDyne/A) and normal coordinates:
                      1                      2                      3
                        a                      a                      a 
 Frequencies --    -4.2535                16.3467                18.2015
 Red. masses --    11.2002                12.2190                11.9933
 Frc consts  --     0.0000                 0.0000                 0.0000
 IR Inten    --     0.0290                 0.4346                 1.2263
 Raman Activ --     0.0000                 0.0000                 0.0000
 Depolar     --     0.0000                 0.0000                 0.0000
 Atom AN      X      Y      Z        X      Y      Z        X      Y      Z
   1   8     0.02   0.02  -0.01    -0.06  -0.01  -0.09     0.04   0.08  -0.09
   2   6     0.01   0.01  -0.01    -0.06  -0.02  -0.06     0.06   0.10  -0.09
   3   1     0.01   0.01  -0.01    -0.02  -0.01  -0.02     0.02   0.03  -0.03
   4   1     0.01   0.00   0.00    -0.02  -0.00  -0.02     0.03   0.02  -0.03
   5   6     0.00   0.00  -0.02    -0.05  -0.03  -0.06     0.06   0.12  -0.09
   6   1     0.00   0.00  -0.01    -0.01  -0.01  -0.01     0.02   0.04  -0.03
   7   1    -0.00   0.00  -0.01    -0.01  -0.01  -0.02     0.01   0.04  -0.02
   8   7    -0.01  -0.01  -0.01    -0.05  -0.05  -0.07     0.07   0.13  -0.10
   9   6    -0.01  -0.01   0.01    -0.03  -0.05  -0.05     0.07   0.12  -0.10
  10   1    -0.00  -0.00   0.00    -0.01  -0.01  -0.01     0.02   0.04  -0.03
  11   1    -0.00  -0.01   0.00    -0.01  -0.02  -0.02     0.02   0.04  -0.03
  12   1     0.00  -0.00   0.01    -0.01  -0.01  -0.02     0.02   0.03  -0.03
  13   6    -0.02  -0.02  -0.02    -0.04  -0.05  -0.06     0.07   0.13  -0.09
  14   1    -0.00  -0.00  -0.00    -0.01  -0.01  -0.01     0.02   0.04  -0.03
  15   1    -0.01  -0.00  -0.01    -0.01  -0.01  -0.02     0.02   0.04  -0.02
  16   1    -0.01  -0.01  -0.00    -0.01  -0.02  -0.02     0.02   0.04  -0.03
  17   6    -0.01  -0.01  -0.01    -0.05  -0.06  -0.07     0.06   0.12  -0.09
  18   1    -0.01  -0.01  -0.00    -0.01  -0.02  -0.02     0.02   0.03  -0.02
  19   1    -0.00  -0.00  -0.01    -0.02  -0.02  -0.02     0.02   0.03  -0.03
  20   1    -0.00  -0.00   0.00    -0.01  -0.02  -0.02     0.02   0.03  -0.02
  21   1     0.00   0.00  -0.01    -0.01  -0.00  -0.03     0.00   0.02  -0.02
  22   6    -0.00  -0.01   0.01     0.07   0.08   0.13    -0.14  -0.11   0.12
  23   8     0.01   0.01  -0.00     0.01   0.01   0.03    -0.02   0.05  -0.01
  24   7     0.12   0.15  -0.56     0.21   0.05   0.22    -0.35  -0.13   0.25
  25   1     0.07   0.08  -0.26     0.07  -0.01   0.05    -0.10  -0.00   0.05
  26   1     0.04   0.04  -0.14     0.07   0.03   0.08    -0.12  -0.07   0.09
  27   7    -0.15  -0.18   0.59     0.03   0.22   0.19    -0.13  -0.30   0.20
  28   1    -0.05  -0.06   0.15     0.02   0.08   0.07    -0.06  -0.11   0.08
  29   1    -0.07  -0.08   0.27    -0.02   0.07   0.03     0.00  -0.08   0.03
  30   6    -0.00   0.01  -0.04     0.07  -0.03  -0.12    -0.07   0.09   0.01
  31   8    -0.00   0.01  -0.04     0.02  -0.06  -0.15    -0.03   0.13  -0.03
  32   7    -0.00   0.01  -0.07     0.12  -0.04  -0.25    -0.14   0.13  -0.01
  33   1    -0.00   0.00  -0.02     0.03  -0.02  -0.09    -0.04   0.05  -0.01
  34   1     0.00   0.00  -0.02     0.05  -0.01  -0.06    -0.05   0.03   0.01
  35   7    -0.00   0.01  -0.03     0.08   0.01  -0.01    -0.08   0.02   0.08
  36   1     0.00   0.00  -0.01     0.03   0.01   0.00    -0.03  -0.00   0.03
  37   1    -0.00   0.00  -0.00     0.01   0.01   0.02    -0.01  -0.00   0.02
  38   6     0.02   0.01   0.03    -0.05  -0.13  -0.09     0.13  -0.11  -0.06
  39   8     0.01   0.00   0.03    -0.09  -0.03  -0.13     0.12  -0.07  -0.09
  40   7     0.03   0.02   0.03    -0.08  -0.24  -0.18     0.20  -0.14  -0.12
  41   1     0.01   0.00   0.01    -0.04  -0.06  -0.07     0.06  -0.03  -0.04
  42   1     0.01   0.01   0.01    -0.02  -0.09  -0.04     0.05  -0.05  -0.03
  43   7     0.02   0.01   0.02     0.01  -0.16   0.02     0.11  -0.15  -0.01
  44   1     0.01   0.00   0.01     0.01  -0.07   0.01     0.03  -0.05  -0.00
  45   1     0.00   0.00   0.01     0.01  -0.03   0.02     0.02  -0.03   0.01
  46   6    -0.01  -0.01   0.02    -0.01   0.13   0.18    -0.00  -0.05   0.07
  47   8    -0.00  -0.00   0.02     0.04   0.04   0.21     0.00  -0.07   0.08
  48   7    -0.02  -0.01   0.03    -0.00   0.24   0.30    -0.06  -0.05   0.14
  49   1    -0.01  -0.00   0.01     0.01   0.06   0.10    -0.03  -0.02   0.05
  50   1    -0.01  -0.01   0.01    -0.01   0.09   0.08    -0.01  -0.01   0.04
  51   7    -0.01  -0.01   0.04    -0.09   0.18   0.09     0.05  -0.04   0.01
  52   1    -0.01  -0.00   0.01    -0.03   0.07   0.02     0.01  -0.01   0.00
  53   1    -0.00  -0.00   0.01    -0.02   0.03   0.00     0.02  -0.01  -0.01
                      4                      5                      6
                        a                      a                      a 
 Frequencies --    25.5578                35.8489                36.7485
 Red. masses --    11.7485                12.6687                12.4762
 Frc consts  --     0.0000                 0.0000                 0.0000
 IR Inten    --     2.4601                 1.2789                 0.4148
 Raman Activ --     0.0000                 0.0000                 0.0000
 Depolar     --     0.0000                 0.0000                 0.0000
 Atom AN      X      Y      Z        X      Y      Z        X      Y      Z
   1   8     0.09  -0.13  -0.09    -0.03  -0.02  -0.07    -0.04   0.08  -0.05
   2   6     0.07  -0.09  -0.16     0.05   0.04  -0.00    -0.04   0.05  -0.04
   3   1     0.03  -0.03  -0.06     0.01   0.04  -0.00    -0.01   0.02  -0.01
   4   1     0.03  -0.03  -0.05     0.04   0.00   0.02    -0.01   0.02  -0.00
   5   6    -0.01  -0.05  -0.19     0.05   0.00  -0.01    -0.05   0.02  -0.05
   6   1    -0.00  -0.01  -0.07     0.02   0.01   0.01    -0.02   0.00  -0.01
   7   1    -0.00  -0.01  -0.05     0.00   0.00  -0.02    -0.01   0.00  -0.02
   8   7    -0.08  -0.02  -0.16     0.06  -0.10   0.00    -0.07   0.02  -0.03
   9   6    -0.11  -0.01  -0.13     0.09  -0.11   0.09    -0.10   0.03   0.00
  10   1    -0.03  -0.01  -0.05     0.03  -0.02   0.04    -0.03   0.00   0.00
  11   1    -0.05   0.00  -0.03     0.03  -0.05   0.03    -0.03   0.01   0.00
  12   1    -0.02   0.00  -0.03     0.02  -0.02   0.02    -0.03   0.02   0.01
  13   6    -0.14  -0.03  -0.19     0.06  -0.15  -0.00    -0.08  -0.03  -0.05
  14   1    -0.04  -0.01  -0.07     0.02  -0.04   0.01    -0.03  -0.01  -0.01
  15   1    -0.03  -0.01  -0.06     0.01  -0.04  -0.02    -0.02  -0.01  -0.02
  16   1    -0.05  -0.00  -0.05     0.02  -0.06   0.00    -0.03  -0.01  -0.01
  17   6    -0.05   0.01  -0.08     0.03  -0.12  -0.07    -0.05   0.04  -0.03
  18   1    -0.03   0.01  -0.01     0.02  -0.05  -0.02    -0.03   0.00  -0.00
  19   1    -0.01  -0.00  -0.02     0.00  -0.03  -0.03    -0.01   0.01  -0.03
  20   1    -0.00   0.00  -0.01     0.00  -0.03  -0.02    -0.00   0.03   0.00
  21   1     0.02  -0.03  -0.02    -0.02  -0.00  -0.03    -0.01   0.02  -0.02
  22   6    -0.02   0.05   0.09     0.11  -0.08   0.00    -0.07   0.04  -0.01
  23   8    -0.09  -0.02  -0.17     0.15  -0.07   0.12    -0.13  -0.01  -0.04
  24   7     0.14  -0.01   0.25     0.05  -0.07  -0.06     0.00   0.04  -0.00
  25   1     0.06  -0.04   0.04     0.00  -0.01  -0.00     0.01  -0.01  -0.00
  26   1     0.05   0.01   0.12     0.01  -0.02  -0.04     0.01   0.02   0.01
  27   7    -0.12   0.21   0.26     0.16  -0.15  -0.07    -0.11   0.12   0.01
  28   1    -0.02   0.08   0.11     0.04  -0.05  -0.04    -0.02   0.04   0.01
  29   1    -0.06   0.08   0.03     0.05  -0.05  -0.00    -0.04   0.04   0.00
  30   6     0.04  -0.08   0.14    -0.10  -0.02   0.07    -0.02   0.02   0.03
  31   8     0.03  -0.07   0.01    -0.14  -0.00  -0.11    -0.01   0.06  -0.08
  32   7     0.06  -0.12   0.32    -0.10   0.01  -0.17    -0.06   0.09  -0.24
  33   1     0.02  -0.04   0.08    -0.03   0.00  -0.09    -0.02   0.04  -0.10
  34   1     0.02  -0.04   0.11    -0.01  -0.02   0.05    -0.01   0.01   0.00
  35   7     0.04  -0.08   0.16    -0.07  -0.09   0.58    -0.00  -0.08   0.46
  36   1     0.01  -0.02   0.07    -0.02  -0.01   0.12    -0.01  -0.02   0.10
  37   1     0.01  -0.01   0.01    -0.03  -0.01   0.11     0.00  -0.02   0.11
  38   6     0.09   0.12   0.03     0.03   0.12  -0.06    -0.03  -0.08   0.09
  39   8     0.03   0.07   0.05     0.01   0.15  -0.08    -0.03  -0.10   0.11
  40   7     0.18   0.19   0.06     0.13   0.15  -0.09    -0.05  -0.08   0.11
  41   1     0.06   0.05   0.03     0.04   0.04  -0.02    -0.02  -0.02   0.03
  42   1     0.07   0.07   0.02     0.04   0.04  -0.02    -0.02  -0.02   0.03
  43   7     0.07   0.14  -0.01    -0.03   0.10  -0.05    -0.02  -0.08   0.09
  44   1     0.03   0.05  -0.01    -0.00   0.03  -0.02    -0.01  -0.02   0.02
  45   1     0.00   0.03  -0.01    -0.03   0.03  -0.01    -0.00  -0.02   0.02
  46   6    -0.05  -0.02  -0.05    -0.12   0.10  -0.01     0.21  -0.04  -0.06
  47   8    -0.03   0.03  -0.10    -0.16   0.13   0.01     0.09  -0.07   0.09
  48   7    -0.09  -0.07  -0.06    -0.18   0.09   0.03     0.47  -0.01  -0.28
  49   1    -0.02  -0.01  -0.03    -0.06   0.02   0.02     0.12  -0.00  -0.07
  50   1    -0.03  -0.03  -0.01    -0.04   0.02   0.00     0.14   0.00  -0.10
  51   7    -0.04  -0.04   0.01    -0.05   0.12  -0.06     0.20  -0.05  -0.03
  52   1    -0.02  -0.02   0.02    -0.01   0.03  -0.02     0.08  -0.01  -0.05
  53   1    -0.01  -0.00   0.01    -0.01   0.03  -0.02     0.02  -0.02   0.02
                      7                      8                      9
                        a                      a                      a 
 Frequencies --    40.6447                48.0247                52.4472
 Red. masses --    12.3184                12.6043                12.5582
 Frc consts  --     0.0000                 0.0000                 0.0000
 IR Inten    --     1.4752                 1.3158                 7.4245
 Raman Activ --     0.0000                 0.0000                 0.0000
 Depolar     --     0.0000                 0.0000                 0.0000
 Atom AN      X      Y      Z        X      Y      Z        X      Y      Z
   1   8     0.00   0.01   0.06     0.07  -0.28   0.22    -0.01  -0.02   0.06
   2   6    -0.09  -0.08   0.03     0.08  -0.18   0.06    -0.04  -0.04   0.07
   3   1    -0.03  -0.06   0.02     0.03  -0.06   0.01    -0.01  -0.02   0.02
   4   1    -0.06  -0.01  -0.02     0.03  -0.06  -0.00    -0.02  -0.01   0.01
   5   6    -0.01  -0.05   0.07     0.01  -0.03   0.04     0.00  -0.06   0.08
   6   1    -0.02  -0.03   0.02     0.01   0.01  -0.02    -0.02  -0.04   0.03
   7   1     0.02  -0.02   0.04    -0.02  -0.00   0.03     0.02  -0.03   0.03
   8   7     0.03   0.10   0.01    -0.03   0.02   0.06     0.02   0.02   0.06
   9   6    -0.04   0.12  -0.12     0.07  -0.02  -0.05    -0.10   0.06   0.02
  10   1    -0.02   0.02  -0.05     0.03   0.01  -0.04    -0.05  -0.00   0.01
  11   1    -0.01   0.06  -0.04     0.01   0.01  -0.01    -0.02   0.03   0.00
  12   1    -0.02   0.02  -0.04     0.03  -0.04  -0.01    -0.04   0.03  -0.00
  13   6     0.09   0.15   0.06    -0.08   0.19   0.04     0.07  -0.05   0.08
  14   1     0.02   0.03   0.01    -0.01   0.07  -0.02    -0.00  -0.04   0.03
  15   1     0.04   0.04   0.04    -0.05   0.07   0.04     0.05  -0.03   0.03
  16   1     0.04   0.07   0.01    -0.03   0.07   0.02     0.02   0.01   0.02
  17   6     0.08   0.14   0.04    -0.09  -0.06   0.19     0.10   0.11   0.03
  18   1     0.03   0.06   0.01    -0.03   0.00   0.05     0.03   0.05   0.00
  19   1     0.04   0.03   0.02    -0.05  -0.01   0.09     0.05   0.02   0.01
  20   1     0.02   0.04   0.00    -0.02  -0.06   0.05     0.02   0.05   0.00
  21   1     0.03  -0.00   0.03     0.00  -0.06   0.07     0.01  -0.00   0.03
  22   6    -0.04   0.02  -0.01    -0.01   0.09  -0.02    -0.09  -0.10   0.01
  23   8    -0.08  -0.01  -0.05     0.12   0.24  -0.21    -0.31  -0.36   0.12
  24   7     0.02   0.01   0.01    -0.17   0.07   0.11     0.21  -0.12  -0.08
  25   1     0.01  -0.01   0.00    -0.04   0.05   0.00     0.06  -0.09   0.00
  26   1     0.01   0.01   0.01    -0.06  -0.01   0.06     0.09   0.02  -0.03
  27   7    -0.07   0.09   0.02    -0.01  -0.05   0.09    -0.15   0.18  -0.06
  28   1    -0.01   0.03   0.01    -0.03  -0.04   0.05     0.00   0.09  -0.03
  29   1    -0.03   0.03   0.00     0.03  -0.01  -0.01    -0.10   0.05   0.01
  30   6     0.17  -0.04   0.00    -0.03  -0.10  -0.05    -0.06   0.03   0.01
  31   8     0.27  -0.03   0.14    -0.08  -0.19   0.18     0.01   0.04   0.20
  32   7     0.08   0.08  -0.39     0.01  -0.10  -0.36    -0.13   0.09  -0.10
  33   1     0.02   0.04  -0.09     0.00  -0.04  -0.07    -0.03   0.04   0.00
  34   1     0.01   0.00  -0.07     0.01  -0.02  -0.11    -0.05   0.03  -0.06
  35   7     0.18  -0.17   0.26    -0.03  -0.04  -0.03    -0.07  -0.01  -0.12
  36   1     0.03  -0.03  -0.03     0.00   0.01  -0.08    -0.03  -0.00  -0.07
  37   1     0.06  -0.05   0.05    -0.02  -0.01   0.01    -0.01  -0.01  -0.01
  38   6    -0.05   0.02  -0.01     0.06   0.04  -0.03     0.12   0.01  -0.07
  39   8     0.06  -0.02   0.00     0.00   0.06  -0.04    -0.03   0.04  -0.09
  40   7    -0.18   0.04   0.06     0.22   0.07  -0.07     0.43   0.03  -0.16
  41   1    -0.04   0.01   0.02     0.08   0.02  -0.02     0.13   0.01  -0.05
  42   1    -0.07   0.02   0.01     0.08   0.01  -0.01     0.15  -0.00  -0.03
  43   7    -0.05   0.05  -0.08    -0.02   0.00   0.01     0.04  -0.05   0.01
  44   1    -0.04   0.02  -0.02     0.01   0.00  -0.00     0.05  -0.01  -0.00
  45   1     0.01   0.01  -0.03    -0.04   0.00   0.01    -0.03  -0.01   0.01
  46   6    -0.08  -0.10  -0.03    -0.03   0.06  -0.03    -0.02   0.04  -0.01
  47   8     0.02  -0.04  -0.17    -0.12   0.05   0.06    -0.11   0.01   0.09
  48   7    -0.34  -0.19   0.15     0.14   0.09  -0.19     0.02   0.07  -0.03
  49   1    -0.10  -0.05   0.04     0.03   0.02  -0.04    -0.01   0.01   0.01
  50   1    -0.10  -0.07   0.06     0.04   0.03  -0.05     0.02   0.02  -0.02
  51   7     0.05  -0.11  -0.08    -0.08   0.06   0.02     0.04   0.06  -0.10
  52   1    -0.02  -0.05   0.02     0.00   0.02  -0.03     0.03   0.02  -0.05
  53   1     0.03  -0.02  -0.03    -0.03   0.01   0.01     0.00   0.01  -0.02
                     10                     11                     12
                        a                      a                      a 
 Frequencies --    59.3839                62.2844                71.4590
 Red. masses --    12.8414                12.3051                12.3404
 Frc consts  --     0.0000                 0.0000                 0.0000
 IR Inten    --     0.9285                 1.1309                 1.0860
 Raman Activ --     0.0000                 0.0000                 0.0000
 Depolar     --     0.0000                 0.0000                 0.0000
 Atom AN      X      Y      Z        X      Y      Z        X      Y      Z
   1   8    -0.19  -0.18  -0.14     0.32  -0.10   0.12    -0.02   0.01  -0.04
   2   6    -0.11  -0.11  -0.09     0.32  -0.01   0.01    -0.07  -0.04  -0.01
   3   1    -0.05  -0.03  -0.01     0.11   0.02  -0.02    -0.03  -0.03   0.01
   4   1    -0.03  -0.04  -0.05     0.12  -0.01   0.02    -0.04  -0.00  -0.02
   5   6    -0.01  -0.04  -0.04     0.15   0.01  -0.06     0.02  -0.04   0.03
   6   1    -0.00  -0.01  -0.00     0.05   0.01  -0.04    -0.00  -0.02   0.02
   7   1    -0.00  -0.01   0.01     0.03   0.01  -0.03     0.02  -0.02   0.02
   8   7     0.07   0.03  -0.12     0.03  -0.03   0.05     0.08   0.04  -0.03
   9   6     0.03   0.04  -0.18     0.03  -0.02   0.14     0.08   0.04  -0.15
  10   1     0.00   0.00  -0.06     0.01  -0.01   0.02     0.02   0.01  -0.07
  11   1     0.01   0.03  -0.06    -0.02  -0.01   0.06     0.02   0.04  -0.05
  12   1     0.00   0.01  -0.06     0.03  -0.00   0.06     0.03  -0.01  -0.05
  13   6     0.15   0.04  -0.05    -0.11  -0.07  -0.06     0.14   0.13   0.03
  14   1     0.04   0.01  -0.01    -0.04  -0.02  -0.04     0.04   0.04   0.01
  15   1     0.05   0.01   0.00    -0.03  -0.02  -0.04     0.04   0.04   0.03
  16   1     0.06   0.03  -0.03    -0.06  -0.02   0.01     0.06   0.05  -0.01
  17   6     0.09   0.05  -0.14     0.03  -0.02   0.14     0.06   0.03  -0.01
  18   1     0.04   0.02  -0.05    -0.02  -0.01   0.06     0.05   0.04  -0.03
  19   1     0.03   0.01  -0.03     0.01  -0.01   0.03     0.01   0.01   0.05
  20   1     0.02   0.01  -0.05     0.03  -0.00   0.06    -0.01  -0.03  -0.03
  21   1    -0.05  -0.04  -0.01     0.05  -0.01   0.03     0.01   0.00  -0.00
  22   6     0.06  -0.06  -0.03     0.01  -0.08  -0.07     0.08  -0.13  -0.05
  23   8     0.07  -0.07  -0.11    -0.03  -0.14  -0.30     0.05  -0.20  -0.20
  24   7     0.08  -0.08   0.02     0.12  -0.13   0.05     0.18  -0.18   0.03
  25   1     0.03  -0.03  -0.01     0.05  -0.06  -0.01     0.06  -0.07  -0.01
  26   1     0.03  -0.02   0.02     0.05  -0.03   0.06     0.06  -0.04   0.03
  27   7     0.05  -0.05   0.01    -0.06   0.02   0.06     0.03  -0.06   0.03
  28   1     0.01  -0.01   0.02    -0.01   0.02   0.05     0.02  -0.00   0.03
  29   1     0.01  -0.01  -0.00    -0.04   0.02  -0.02    -0.01  -0.01  -0.01
  30   6    -0.09  -0.02  -0.02    -0.12   0.09   0.02    -0.06   0.07   0.02
  31   8    -0.15  -0.07   0.09    -0.11   0.10   0.14    -0.04   0.10   0.06
  32   7    -0.03  -0.05  -0.05    -0.16   0.13  -0.07    -0.11   0.12  -0.04
  33   1    -0.01  -0.03   0.00    -0.04   0.04   0.00    -0.03   0.04   0.00
  34   1     0.00  -0.00  -0.04    -0.05   0.03  -0.02    -0.04   0.02   0.00
  35   7    -0.09   0.07  -0.14    -0.13   0.09  -0.01    -0.07   0.04   0.06
  36   1    -0.01   0.03  -0.04    -0.04   0.03  -0.04    -0.03   0.01  -0.01
  37   1    -0.03   0.02  -0.00    -0.03   0.02  -0.00    -0.01   0.01   0.00
  38   6    -0.03   0.07   0.14    -0.09  -0.00  -0.01    -0.01   0.02   0.02
  39   8     0.24   0.14   0.15    -0.06   0.03  -0.02     0.03   0.02   0.02
  40   7    -0.13   0.07   0.18    -0.36  -0.09  -0.01    -0.12   0.00   0.04
  41   1     0.02   0.03   0.04    -0.13  -0.03  -0.01    -0.04  -0.00   0.01
  42   1    -0.08   0.00   0.04    -0.11  -0.02  -0.00    -0.04   0.00   0.01
  43   7    -0.25   0.01   0.14     0.11   0.06  -0.02     0.02   0.04  -0.01
  44   1    -0.13  -0.01   0.05     0.02   0.00  -0.00    -0.00   0.01  -0.00
  45   1    -0.05   0.01   0.05     0.05   0.02  -0.00     0.02   0.01  -0.01
  46   6     0.04   0.05   0.10     0.03   0.03  -0.03    -0.06  -0.00   0.05
  47   8    -0.17   0.13   0.28     0.02   0.02  -0.01     0.10  -0.02  -0.09
  48   7     0.01  -0.03   0.05    -0.08   0.04   0.10     0.17   0.06  -0.15
  49   1    -0.05  -0.01   0.03    -0.03   0.01   0.04     0.10   0.03  -0.07
  50   1     0.05  -0.03  -0.03    -0.00   0.01   0.00    -0.02   0.02   0.03
  51   7     0.34   0.06  -0.02     0.16   0.06  -0.17    -0.50  -0.05   0.42
  52   1     0.12  -0.01  -0.03     0.03   0.02  -0.03    -0.13  -0.00   0.10
  53   1     0.08   0.03   0.02     0.03   0.01  -0.04    -0.10  -0.01   0.08
                     13                     14                     15
                        a                      a                      a 
 Frequencies --    76.1058                86.4916                88.2657
 Red. masses --    13.1586                13.2135                13.3423
 Frc consts  --     0.0000                 0.0000                 0.0000
 IR Inten    --     3.4409                 2.5133                 5.7811
 Raman Activ --     0.0000                 0.0000                 0.0000
 Depolar     --     0.0000                 0.0000                 0.0000
 Atom AN      X      Y      Z        X      Y      Z        X      Y      Z
   1   8    -0.14  -0.28  -0.12    -0.00   0.17  -0.09     0.24  -0.08  -0.00
   2   6     0.07  -0.04  -0.11    -0.07   0.06  -0.01     0.25  -0.00  -0.09
   3   1     0.02   0.04  -0.04    -0.02   0.01  -0.00     0.08   0.01  -0.04
   4   1     0.08  -0.04  -0.03    -0.04   0.03   0.01     0.09  -0.01  -0.02
   5   6     0.01   0.06  -0.13    -0.04  -0.05  -0.02     0.14   0.07  -0.12
   6   1     0.02   0.04  -0.05    -0.03  -0.03   0.00     0.04   0.03  -0.06
   7   1    -0.03   0.03  -0.03     0.01  -0.03  -0.02     0.03   0.02  -0.04
   8   7    -0.03  -0.00  -0.10    -0.08  -0.02   0.00     0.07   0.07  -0.07
   9   6    -0.11   0.03   0.06    -0.20   0.03   0.07     0.03   0.08  -0.00
  10   1    -0.05   0.00   0.05    -0.08  -0.01   0.03     0.00   0.02   0.01
  11   1    -0.02  -0.02   0.02    -0.06   0.01   0.02     0.01   0.01   0.00
  12   1    -0.05   0.05   0.01    -0.06   0.04   0.02     0.01   0.04   0.00
  13   6    -0.04  -0.19  -0.13    -0.07  -0.16  -0.02    -0.00   0.02  -0.11
  14   1    -0.03  -0.07  -0.02    -0.04  -0.06   0.00    -0.01  -0.00  -0.04
  15   1     0.02  -0.07  -0.07     0.00  -0.06  -0.03     0.01   0.00  -0.05
  16   1    -0.02  -0.06  -0.03    -0.03  -0.05  -0.00    -0.01   0.00  -0.02
  17   6     0.04   0.07  -0.17     0.03   0.10  -0.03     0.08   0.09  -0.02
  18   1    -0.00  -0.00  -0.04    -0.00   0.03  -0.00     0.01   0.03   0.00
  19   1     0.03   0.02  -0.09     0.04   0.02  -0.03     0.03   0.02  -0.01
  20   1     0.02   0.07  -0.03     0.01   0.07   0.00     0.03   0.03   0.00
  21   1    -0.06  -0.04   0.02     0.04   0.04  -0.00     0.05  -0.01   0.01
  22   6     0.03   0.04   0.07     0.16  -0.02  -0.07    -0.05   0.03   0.11
  23   8     0.06   0.08   0.25     0.30   0.10  -0.27    -0.11  -0.02   0.42
  24   7    -0.05   0.08  -0.04     0.05  -0.05   0.07    -0.05   0.09  -0.07
  25   1    -0.03   0.04   0.01     0.02   0.01  -0.02    -0.03   0.02   0.03
  26   1    -0.02   0.01  -0.04    -0.00  -0.04   0.04    -0.01   0.03  -0.07
  27   7     0.09  -0.04  -0.05     0.17  -0.16   0.06     0.00   0.04  -0.07
  28   1     0.01  -0.02  -0.03     0.02  -0.07   0.04     0.01   0.01  -0.06
  29   1     0.04  -0.03   0.02     0.07  -0.03  -0.02    -0.00  -0.01   0.03
  30   6    -0.03   0.05   0.13     0.10   0.01   0.04     0.05  -0.10  -0.02
  31   8    -0.06  -0.03   0.52     0.35   0.10   0.18     0.17  -0.06  -0.01
  32   7     0.01   0.09  -0.18    -0.12   0.16   0.04    -0.05  -0.04  -0.00
  33   1    -0.00  -0.00   0.04    -0.03   0.10   0.03    -0.01   0.01   0.00
  34   1     0.01   0.03  -0.06    -0.09   0.03  -0.03    -0.04  -0.02  -0.01
  35   7    -0.03   0.14  -0.01     0.08  -0.22  -0.10     0.04  -0.21  -0.07
  36   1    -0.00   0.06  -0.12    -0.02  -0.08  -0.03    -0.01  -0.07  -0.01
  37   1    -0.01   0.04   0.00     0.05  -0.08  -0.00     0.02  -0.06  -0.01
  38   6    -0.02   0.00   0.01    -0.08  -0.01   0.04    -0.04  -0.01   0.01
  39   8    -0.12  -0.05   0.02    -0.23  -0.01   0.04     0.06   0.09  -0.01
  40   7     0.01   0.04   0.03     0.09  -0.01  -0.01    -0.22  -0.10  -0.02
  41   1     0.00   0.01   0.02     0.01  -0.00  -0.01    -0.05  -0.02  -0.02
  42   1     0.03   0.03   0.01     0.04  -0.01   0.00    -0.08  -0.04  -0.00
  43   7     0.01   0.03  -0.01    -0.08  -0.03   0.09    -0.01  -0.02   0.06
  44   1     0.03   0.02  -0.01     0.00  -0.01   0.02    -0.04  -0.02   0.03
  45   1     0.02   0.00  -0.01    -0.06  -0.01   0.03    -0.02   0.00   0.02
  46   6     0.07  -0.02  -0.00    -0.09   0.01   0.01    -0.15   0.02   0.04
  47   8     0.27  -0.06  -0.15    -0.23  -0.03   0.14    -0.34   0.08   0.17
  48   7     0.04   0.01   0.09     0.02   0.04  -0.08     0.05  -0.01  -0.24
  49   1     0.04   0.01   0.01    -0.01   0.01   0.00    -0.02  -0.01  -0.05
  50   1    -0.02   0.01   0.06     0.02   0.02  -0.04     0.01  -0.02  -0.05
  51   7    -0.08  -0.03   0.07    -0.03   0.02  -0.07    -0.16  -0.00   0.17
  52   1    -0.05  -0.00   0.06     0.01   0.01  -0.05     0.01  -0.01  -0.01
  53   1    -0.01  -0.01   0.01    -0.03   0.00  -0.01    -0.03   0.01   0.04
                     16                     17                     18
                        a                      a                      a 
 Frequencies --    95.0593               103.5670               108.8073
 Red. masses --    11.3973                12.1344                12.1978
 Frc consts  --     0.0000                 0.0000                 0.0000
 IR Inten    --     3.5698                 0.3586                19.7443
 Raman Activ --     0.0000                 0.0000                 0.0000
 Depolar     --     0.0000                 0.0000                 0.0000
 Atom AN      X      Y      Z        X      Y      Z        X      Y      Z
   1   8     0.16  -0.01   0.10     0.02   0.05   0.07    -0.01  -0.07   0.07
   2   6    -0.12  -0.23  -0.05    -0.04   0.02  -0.03     0.15   0.12   0.00
   3   1    -0.03  -0.16  -0.01     0.00  -0.01  -0.02     0.05   0.08  -0.01
   4   1    -0.11  -0.03  -0.05    -0.02   0.01  -0.01     0.10   0.01   0.01
   5   6    -0.08  -0.20  -0.02    -0.11   0.03  -0.06     0.04   0.24  -0.03
   6   1    -0.05  -0.09  -0.02    -0.03   0.01  -0.03     0.02   0.09  -0.03
   7   1     0.02  -0.07   0.02    -0.03   0.01  -0.02    -0.01   0.08  -0.00
   8   7    -0.09   0.02  -0.07    -0.18   0.04  -0.02    -0.02   0.25   0.02
   9   6    -0.18   0.05  -0.26    -0.07  -0.00  -0.06    -0.03   0.24   0.08
  10   1    -0.07  -0.01  -0.10    -0.01   0.01  -0.04    -0.01   0.07   0.02
  11   1    -0.05   0.06  -0.09    -0.03   0.00  -0.01    -0.02   0.06   0.03
  12   1    -0.06  -0.00  -0.08    -0.01  -0.03  -0.01    -0.00   0.08   0.03
  13   6    -0.04   0.13  -0.02    -0.25   0.13  -0.06    -0.06   0.20  -0.02
  14   1    -0.01   0.04  -0.02    -0.06   0.05  -0.04    -0.03   0.05  -0.02
  15   1    -0.01   0.04   0.03    -0.09   0.05  -0.02    -0.00   0.05  -0.01
  16   1    -0.00   0.07  -0.02    -0.09   0.04  -0.01    -0.03   0.07   0.00
  17   6    -0.02   0.10   0.06    -0.21  -0.02   0.12    -0.02   0.23   0.02
  18   1    -0.00   0.08   0.01    -0.08  -0.00   0.05    -0.02   0.05   0.02
  19   1     0.01   0.02   0.07    -0.07  -0.00   0.04    -0.00   0.07  -0.02
  20   1    -0.01   0.00   0.01    -0.04  -0.03   0.05     0.01   0.08   0.02
  21   1     0.07  -0.02   0.01     0.01   0.01   0.02    -0.05  -0.01   0.01
  22   6     0.10  -0.03   0.09     0.11  -0.12   0.04     0.09  -0.12   0.00
  23   8     0.14  -0.00   0.30     0.10  -0.16   0.15     0.08  -0.17   0.00
  24   7     0.03   0.02  -0.02     0.14  -0.12  -0.00     0.16  -0.15   0.01
  25   1    -0.01   0.02   0.02     0.04  -0.03  -0.00     0.05  -0.04  -0.02
  26   1     0.00   0.00  -0.05     0.05  -0.02  -0.04     0.06  -0.02  -0.02
  27   7     0.18  -0.11  -0.04     0.15  -0.12  -0.04     0.10  -0.09  -0.02
  28   1     0.04  -0.05  -0.03     0.03  -0.04   0.00     0.02  -0.03   0.03
  29   1     0.06  -0.05   0.03     0.03  -0.05   0.03     0.01  -0.03   0.02
  30   6    -0.11  -0.01  -0.05     0.09   0.16   0.06    -0.01  -0.12  -0.07
  31   8    -0.08   0.03  -0.15    -0.03   0.11   0.12    -0.11  -0.16  -0.21
  32   7    -0.17   0.02   0.01     0.23   0.10  -0.02     0.09  -0.21  -0.01
  33   1    -0.04   0.02  -0.01     0.06  -0.01  -0.00     0.02  -0.08  -0.03
  34   1    -0.06  -0.01   0.02     0.09   0.04  -0.01     0.05  -0.05   0.01
  35   7    -0.12  -0.07  -0.01     0.11   0.33   0.07     0.00  -0.05   0.01
  36   1    -0.04  -0.03   0.02     0.05   0.10   0.00     0.02  -0.01   0.03
  37   1    -0.02  -0.02  -0.01     0.01   0.10   0.03    -0.01  -0.00  -0.00
  38   6     0.03   0.05   0.05     0.05  -0.10  -0.05    -0.14  -0.02   0.04
  39   8    -0.16   0.03   0.06     0.13  -0.15  -0.05    -0.30  -0.07   0.06
  40   7    -0.05  -0.00   0.04     0.03  -0.08  -0.02     0.10   0.08   0.04
  41   1    -0.08  -0.01   0.01     0.02  -0.02   0.00     0.05   0.02   0.02
  42   1     0.02   0.01   0.01    -0.00  -0.02  -0.01     0.06   0.03   0.01
  43   7     0.34   0.14   0.08     0.00  -0.11  -0.11    -0.26  -0.04   0.05
  44   1     0.15   0.04   0.01    -0.03  -0.03  -0.02    -0.04  -0.00   0.00
  45   1     0.08   0.03   0.01    -0.01  -0.03  -0.03    -0.08  -0.02   0.01
  46   6     0.05   0.01  -0.02    -0.06   0.01  -0.01     0.02  -0.04  -0.02
  47   8     0.09  -0.05  -0.02    -0.19   0.19   0.03     0.10  -0.13  -0.04
  48   7     0.02   0.07   0.09    -0.09  -0.15  -0.18     0.01   0.03   0.09
  49   1     0.02   0.02   0.03    -0.07  -0.04  -0.06     0.03   0.01   0.03
  50   1     0.02   0.04   0.00    -0.01  -0.08  -0.04     0.00   0.03   0.02
  51   7     0.08   0.04  -0.14     0.09  -0.03   0.08    -0.03  -0.02  -0.09
  52   1     0.00   0.02  -0.02     0.05  -0.03   0.00    -0.03   0.01  -0.01
  53   1    -0.00   0.00  -0.02     0.03   0.00   0.03    -0.03  -0.02  -0.02
                     19                     20                     21
                        a                      a                      a 
 Frequencies --   109.7157               123.2170               127.6037
 Red. masses --    12.1717                11.3785                12.6783
 Frc consts  --     0.0000                 0.0000                 0.0000
 IR Inten    --    23.3455                 3.5554                18.8038
 Raman Activ --     0.0000                 0.0000                 0.0000
 Depolar     --     0.0000                 0.0000                 0.0000
 Atom AN      X      Y      Z        X      Y      Z        X      Y      Z
   1   8    -0.06  -0.05  -0.03    -0.26   0.06  -0.13     0.10  -0.05  -0.11
   2   6    -0.00  -0.02   0.05    -0.08   0.18  -0.03     0.06  -0.08  -0.07
   3   1    -0.01   0.01   0.02    -0.03   0.09  -0.00     0.01  -0.04  -0.01
   4   1     0.01  -0.01   0.01     0.02   0.03  -0.00     0.00  -0.02  -0.03
   5   6     0.05  -0.02   0.07    -0.05   0.22  -0.02     0.11  -0.08  -0.05
   6   1     0.01  -0.02   0.03     0.01   0.10   0.01     0.03  -0.02  -0.01
   7   1     0.03  -0.01   0.03    -0.06   0.08  -0.01     0.03  -0.02  -0.01
   8   7     0.10   0.04   0.03     0.01   0.06  -0.03     0.13  -0.08  -0.06
   9   6    -0.08   0.10   0.06     0.26  -0.05  -0.02     0.24  -0.12  -0.16
  10   1    -0.05   0.00   0.04     0.11   0.03  -0.00     0.09  -0.02  -0.07
  11   1    -0.02   0.04   0.01     0.09  -0.04  -0.00     0.07  -0.02  -0.05
  12   1    -0.04   0.06   0.01     0.08  -0.05  -0.00     0.08  -0.08  -0.04
  13   6     0.19  -0.12   0.07    -0.01   0.21  -0.02     0.09   0.12  -0.05
  14   1     0.03  -0.06   0.04     0.03   0.09  -0.01     0.05   0.06  -0.03
  15   1     0.09  -0.05   0.02    -0.05   0.08   0.00    -0.01   0.05   0.01
  16   1     0.07  -0.02   0.01     0.01   0.04  -0.01     0.03   0.03  -0.02
  17   6     0.20   0.16  -0.10    -0.19  -0.17  -0.05     0.02  -0.18   0.05
  18   1     0.07   0.05  -0.04    -0.05  -0.09  -0.01     0.01  -0.04   0.01
  19   1     0.09   0.04  -0.03    -0.11  -0.03  -0.03    -0.03  -0.04   0.05
  20   1     0.03   0.08  -0.04    -0.04  -0.08  -0.01     0.01  -0.10   0.01
  21   1    -0.02  -0.01  -0.01    -0.07   0.03  -0.01     0.04  -0.01  -0.01
  22   6    -0.01   0.05  -0.04    -0.00  -0.06  -0.00    -0.05   0.02   0.03
  23   8     0.01   0.08  -0.16    -0.04  -0.12   0.01    -0.08  -0.00   0.09
  24   7    -0.04   0.04   0.01     0.07  -0.08  -0.01    -0.03   0.04  -0.04
  25   1    -0.01   0.01   0.00     0.02  -0.03  -0.01    -0.02  -0.00   0.03
  26   1    -0.02  -0.00   0.04     0.03  -0.00  -0.01    -0.01   0.00   0.02
  27   7    -0.04   0.03   0.03    -0.01  -0.00  -0.02    -0.05   0.04   0.01
  28   1    -0.01   0.01   0.01    -0.00   0.00   0.01     0.00   0.02  -0.04
  29   1    -0.00   0.02  -0.02    -0.02  -0.01   0.01    -0.01   0.02  -0.02
  30   6    -0.02  -0.00  -0.02     0.03  -0.11   0.06     0.04   0.11   0.01
  31   8    -0.19  -0.08  -0.08     0.11  -0.12   0.24     0.10   0.15   0.01
  32   7     0.17  -0.13  -0.02    -0.04  -0.07  -0.03    -0.02   0.16   0.03
  33   1     0.04  -0.08  -0.03    -0.01  -0.01   0.03    -0.00   0.06   0.00
  34   1     0.09  -0.01  -0.01    -0.03  -0.02  -0.03    -0.02   0.04   0.00
  35   7     0.00   0.18   0.06     0.02  -0.17  -0.05     0.04   0.06  -0.01
  36   1     0.03   0.06   0.02    -0.01  -0.04  -0.06    -0.00   0.01   0.01
  37   1    -0.03   0.07   0.01     0.01  -0.05  -0.01     0.02   0.01   0.01
  38   6    -0.01  -0.09   0.02     0.05   0.02   0.07    -0.18  -0.08   0.03
  39   8    -0.32  -0.24   0.04    -0.15   0.04   0.08    -0.44  -0.35   0.10
  40   7    -0.02  -0.09   0.04    -0.06  -0.08   0.03     0.12   0.17   0.17
  41   1    -0.09  -0.04   0.03    -0.10  -0.02  -0.00     0.02   0.03   0.11
  42   1     0.04   0.01   0.01     0.01  -0.02   0.01     0.07   0.10   0.04
  43   7     0.36   0.03  -0.02     0.40   0.11   0.14    -0.20  -0.02  -0.12
  44   1     0.17   0.02  -0.03     0.17   0.02   0.02    -0.01   0.03  -0.05
  45   1     0.07  -0.01  -0.02     0.09   0.02   0.03    -0.07  -0.02  -0.05
  46   6    -0.09   0.03   0.01    -0.01   0.03  -0.04    -0.01   0.03   0.04
  47   8    -0.23   0.20   0.05    -0.06   0.03  -0.01    -0.06   0.04   0.09
  48   7    -0.09  -0.10  -0.18    -0.03   0.03  -0.04    -0.01   0.04   0.06
  49   1    -0.07  -0.02  -0.06    -0.02   0.00   0.00    -0.00   0.01   0.02
  50   1    -0.02  -0.07  -0.04    -0.00   0.01  -0.02     0.01   0.02  -0.01
  51   7     0.04   0.00   0.10     0.06   0.04  -0.12     0.05   0.05  -0.03
  52   1     0.04  -0.02   0.00     0.01   0.01  -0.03     0.01   0.02  -0.01
  53   1     0.00   0.01   0.04    -0.01   0.01  -0.01    -0.02  -0.00   0.01
                     22                     23                     24
                        a                      a                      a 
 Frequencies --   150.8478               159.1020               167.2831
 Red. masses --    12.5572                 3.6310                13.4339
 Frc consts  --     0.0000                 0.0000                 0.0000
 IR Inten    --     9.3620                 9.0783                11.6633
 Raman Activ --     0.0000                 0.0000                 0.0000
 Depolar     --     0.0000                 0.0000                 0.0000
 Atom AN      X      Y      Z        X      Y      Z        X      Y      Z
   1   8     0.03  -0.08  -0.04    -0.02   0.00   0.01    -0.01  -0.01  -0.01
   2   6     0.03  -0.06  -0.02    -0.00   0.02  -0.00     0.01   0.01   0.00
   3   1     0.01  -0.02  -0.00     0.00   0.01  -0.00     0.00   0.01   0.00
   4   1     0.01  -0.02  -0.01     0.00   0.00   0.00     0.01  -0.00   0.00
   5   6     0.05  -0.06  -0.01    -0.02   0.02  -0.01     0.01   0.00   0.00
   6   1     0.01  -0.02  -0.00    -0.00   0.01  -0.00    -0.00  -0.00  -0.00
   7   1     0.02  -0.02   0.00    -0.01   0.01  -0.00     0.01  -0.00  -0.00
   8   7     0.06  -0.04  -0.02    -0.03   0.03  -0.00    -0.01   0.02   0.01
   9   6     0.06  -0.04  -0.05    -0.01   0.02   0.00    -0.04   0.03   0.02
  10   1     0.02  -0.01  -0.02     0.00   0.01  -0.00    -0.02   0.00   0.00
  11   1     0.01  -0.00  -0.01    -0.01   0.01   0.00    -0.02   0.01   0.01
  12   1     0.02  -0.01  -0.01     0.00   0.00   0.00    -0.01   0.01   0.01
  13   6     0.07   0.00  -0.01    -0.03   0.01  -0.01    -0.02  -0.02   0.00
  14   1     0.03   0.01  -0.00    -0.01  -0.00  -0.00    -0.01  -0.01   0.00
  15   1     0.01   0.00   0.00    -0.00   0.00  -0.00     0.00  -0.01  -0.00
  16   1     0.02  -0.00  -0.01    -0.01   0.01  -0.00    -0.01  -0.00   0.00
  17   6     0.04  -0.05  -0.00    -0.03   0.02   0.00     0.02   0.05   0.01
  18   1     0.03   0.01  -0.02    -0.01   0.00   0.00     0.00   0.02   0.00
  19   1     0.01  -0.01   0.04    -0.01   0.01  -0.00     0.01   0.01   0.00
  20   1    -0.01  -0.04  -0.02    -0.00   0.01   0.01     0.01   0.02   0.00
  21   1     0.00  -0.02  -0.01    -0.01   0.00   0.00    -0.00  -0.00  -0.00
  22   6    -0.01   0.01   0.00     0.03  -0.02  -0.01     0.00   0.00   0.00
  23   8    -0.02   0.02   0.01     0.02  -0.03   0.02     0.00   0.00   0.00
  24   7    -0.02   0.02  -0.01     0.09   0.08  -0.26     0.00   0.00  -0.00
  25   1    -0.01   0.00   0.02    -0.10  -0.13   0.33    -0.00  -0.00   0.00
  26   1    -0.01  -0.00   0.02    -0.09  -0.17   0.40    -0.00  -0.00   0.00
  27   7    -0.02   0.01   0.02    -0.08  -0.11   0.29     0.00  -0.00   0.00
  28   1     0.01   0.01  -0.03     0.18   0.13  -0.49     0.00   0.00  -0.01
  29   1     0.00   0.01  -0.02     0.13   0.12  -0.37     0.00   0.00  -0.00
  30   6     0.06   0.13   0.01    -0.00  -0.02   0.00    -0.04  -0.07  -0.02
  31   8    -0.03   0.11  -0.04    -0.00  -0.02   0.01     0.03  -0.04  -0.03
  32   7     0.17   0.08   0.01    -0.00  -0.01  -0.01    -0.12  -0.02  -0.01
  33   1     0.04  -0.00  -0.01    -0.00  -0.01   0.01    -0.03   0.01   0.04
  34   1     0.07   0.03   0.02     0.00  -0.01   0.01    -0.05  -0.03   0.05
  35   7     0.07   0.23   0.07    -0.00  -0.02  -0.00    -0.04  -0.14  -0.02
  36   1     0.03   0.07   0.01    -0.00  -0.00  -0.01    -0.02  -0.04  -0.04
  37   1     0.01   0.07   0.01    -0.00  -0.00  -0.00    -0.01  -0.03  -0.05
  38   6    -0.03  -0.02   0.19     0.01   0.01  -0.01     0.11  -0.23   0.13
  39   8    -0.09   0.28   0.15     0.02   0.01  -0.01     0.26  -0.29   0.18
  40   7     0.08  -0.23  -0.03    -0.01   0.00  -0.02     0.07  -0.13   0.28
  41   1     0.02  -0.04  -0.08     0.00   0.00  -0.01     0.05  -0.04   0.11
  42   1     0.02  -0.13   0.00     0.00  -0.00  -0.00    -0.02  -0.01   0.06
  43   7    -0.08  -0.12   0.49     0.00   0.01  -0.01    -0.03  -0.22   0.02
  44   1     0.01  -0.06   0.13    -0.00   0.00  -0.00    -0.03  -0.04   0.01
  45   1    -0.04  -0.02   0.15     0.00   0.00  -0.00     0.02  -0.07   0.00
  46   6    -0.10  -0.04  -0.15     0.01  -0.00   0.01    -0.03   0.27  -0.15
  47   8    -0.07  -0.17  -0.18     0.01   0.00   0.00     0.09   0.30  -0.31
  48   7    -0.10   0.03  -0.09     0.01  -0.01   0.00    -0.17   0.24  -0.07
  49   1    -0.01   0.01  -0.02     0.00  -0.00   0.00    -0.01   0.07  -0.05
  50   1    -0.03   0.02  -0.03     0.00  -0.00   0.00    -0.05   0.06  -0.01
  51   7    -0.17  -0.02  -0.28     0.01  -0.00   0.01    -0.06   0.25  -0.09
  52   1    -0.07   0.01  -0.05     0.00  -0.00   0.00    -0.05   0.05   0.03
  53   1    -0.06  -0.00  -0.06     0.01  -0.00   0.00    -0.01   0.08  -0.03
                     25                     26                     27
                        a                      a                      a 
 Frequencies --   185.3482               194.0077               202.7115
 Red. masses --    11.7030                12.1234                11.4188
 Frc consts  --     0.0000                 0.0000                 0.0000
 IR Inten    --    13.8302                72.5475                 2.3090
 Raman Activ --     0.0000                 0.0000                 0.0000
 Depolar     --     0.0000                 0.0000                 0.0000
 Atom AN      X      Y      Z        X      Y      Z        X      Y      Z
   1   8    -0.34  -0.32  -0.47    -0.08  -0.02  -0.15     0.15   0.46  -0.22
   2   6     0.11  -0.02   0.03     0.03   0.04   0.01     0.05   0.27   0.02
   3   1     0.00   0.14   0.03     0.00   0.05   0.01     0.02   0.11  -0.01
   4   1     0.13  -0.04   0.07     0.03   0.00   0.02    -0.01   0.10   0.08
   5   6     0.14  -0.15   0.04     0.04  -0.03   0.00     0.10  -0.21  -0.03
   6   1     0.01  -0.08   0.00    -0.00  -0.03   0.00    -0.04  -0.15   0.03
   7   1     0.09  -0.06   0.00     0.03  -0.02  -0.01     0.14  -0.11  -0.06
   8   7    -0.01   0.01   0.14     0.00   0.02   0.03     0.04  -0.06  -0.01
   9   6    -0.07   0.04   0.09    -0.04   0.04   0.03    -0.05  -0.02  -0.15
  10   1    -0.02  -0.01  -0.06    -0.02   0.00  -0.02    -0.01  -0.03  -0.16
  11   1    -0.10   0.06   0.06    -0.04   0.03   0.02    -0.11   0.07  -0.01
  12   1     0.04  -0.01   0.08     0.01   0.01   0.03     0.06  -0.04   0.02
  13   6    -0.15   0.10   0.05    -0.02   0.00   0.01    -0.03   0.03  -0.05
  14   1    -0.02   0.05  -0.01    -0.00   0.01   0.00     0.02   0.04  -0.02
  15   1    -0.08   0.04   0.01    -0.01   0.00  -0.01    -0.05   0.03  -0.03
  16   1    -0.07   0.01   0.03    -0.01  -0.01   0.01    -0.01  -0.02  -0.01
  17   6     0.03   0.06   0.29     0.03   0.05   0.05     0.09   0.01   0.15
  18   1     0.07   0.13   0.03     0.04   0.07  -0.01     0.05   0.09   0.02
  19   1     0.02   0.00   0.22     0.01   0.01   0.08     0.04  -0.01   0.14
  20   1    -0.05  -0.07   0.02    -0.03  -0.03  -0.02    -0.00  -0.05   0.01
  21   1    -0.09  -0.06  -0.06    -0.02  -0.00  -0.02     0.06   0.10  -0.10
  22   6     0.00   0.01   0.01    -0.00   0.00   0.01    -0.00   0.01   0.02
  23   8     0.00   0.01   0.03    -0.00  -0.00   0.01     0.00   0.02   0.04
  24   7    -0.01   0.01   0.01     0.00   0.01  -0.01    -0.02   0.03  -0.00
  25   1    -0.00   0.01  -0.00    -0.00  -0.00   0.01    -0.01   0.01   0.01
  26   1    -0.00   0.01  -0.01    -0.00  -0.00   0.01    -0.01   0.00  -0.00
  27   7     0.01  -0.00   0.00     0.00   0.00  -0.00     0.01   0.01  -0.00
  28   1     0.00  -0.00  -0.00     0.00   0.00  -0.00    -0.00  -0.00  -0.00
  29   1     0.00  -0.00   0.00    -0.00   0.00   0.00     0.00  -0.00   0.01
  30   6     0.03   0.04  -0.06     0.03   0.03   0.02    -0.10  -0.12   0.09
  31   8     0.10   0.10  -0.17    -0.05  -0.01   0.05    -0.18  -0.21   0.27
  32   7    -0.06   0.09   0.05     0.12  -0.04   0.02     0.06  -0.22  -0.07
  33   1    -0.01   0.05  -0.01     0.03  -0.01  -0.09     0.01  -0.11  -0.00
  34   1    -0.04   0.01   0.03     0.05   0.04  -0.13     0.05  -0.02  -0.07
  35   7     0.03  -0.06  -0.00     0.02   0.11  -0.00    -0.09   0.01  -0.00
  36   1    -0.00  -0.02   0.01     0.02   0.02   0.08    -0.00   0.02  -0.04
  37   1     0.01  -0.02  -0.03     0.01   0.02   0.07    -0.04   0.01   0.02
  38   6     0.01   0.03  -0.03     0.11  -0.02  -0.01    -0.04  -0.00   0.01
  39   8    -0.01   0.06  -0.04     0.27  -0.16   0.03    -0.05   0.03   0.00
  40   7     0.00  -0.03  -0.08    -0.08   0.12   0.22     0.03  -0.02  -0.03
  41   1    -0.01  -0.00  -0.04    -0.03   0.01   0.11     0.01  -0.00  -0.02
  42   1     0.00  -0.02  -0.02    -0.09   0.08   0.04     0.00  -0.02  -0.01
  43   7     0.05   0.03   0.01     0.14   0.05  -0.20    -0.10  -0.03   0.05
  44   1     0.01  -0.00   0.01     0.01   0.04  -0.06    -0.02  -0.01   0.01
  45   1     0.02   0.01   0.01     0.03  -0.01  -0.08    -0.01  -0.00   0.02
  46   6     0.04   0.00   0.01    -0.14  -0.08  -0.02     0.03   0.00  -0.00
  47   8     0.06   0.09  -0.03    -0.24  -0.38   0.18     0.06   0.03  -0.05
  48   7    -0.02  -0.07  -0.01     0.10   0.22   0.09    -0.01  -0.03  -0.00
  49   1    -0.02  -0.01  -0.02     0.07   0.04   0.09    -0.01  -0.01  -0.00
  50   1    -0.01  -0.04   0.01     0.05   0.14  -0.05    -0.02  -0.02   0.02
  51   7     0.07  -0.01   0.09    -0.24  -0.01  -0.32     0.02  -0.00   0.03
  52   1     0.02  -0.01   0.02    -0.06   0.04  -0.12     0.00  -0.00   0.01
  53   1     0.03   0.00   0.02    -0.09  -0.03  -0.11     0.01   0.00   0.01
                     28                     29                     30
                        a                      a                      a 
 Frequencies --   227.3061               255.1441               264.9231
 Red. masses --     2.6342                 4.5802                 2.6015
 Frc consts  --     0.0000                 0.0000                 0.0000
 IR Inten    --   103.8983                 1.1757                94.9693
 Raman Activ --     0.0000                 0.0000                 0.0000
 Depolar     --     0.0000                 0.0000                 0.0000
 Atom AN      X      Y      Z        X      Y      Z        X      Y      Z
   1   8    -0.01   0.03  -0.02    -0.02  -0.09   0.32    -0.01  -0.01   0.04
   2   6     0.01   0.03   0.01     0.10   0.12   0.10    -0.00   0.01   0.01
   3   1     0.00   0.02   0.00     0.08   0.10  -0.03     0.00   0.01  -0.00
   4   1     0.00   0.01   0.01     0.10   0.01   0.09     0.01  -0.00   0.01
   5   6     0.01  -0.02   0.00    -0.13   0.07  -0.02    -0.02   0.00   0.00
   6   1    -0.01  -0.02   0.00    -0.03   0.03   0.01    -0.00   0.00   0.00
   7   1     0.01  -0.01  -0.01    -0.04   0.02  -0.03    -0.01   0.00  -0.00
   8   7    -0.00  -0.00   0.01    -0.07  -0.02  -0.08    -0.01  -0.01  -0.01
   9   6    -0.01   0.00  -0.00    -0.06  -0.01  -0.11     0.00  -0.01  -0.01
  10   1    -0.00  -0.00  -0.01     0.01  -0.01  -0.25     0.01  -0.00  -0.03
  11   1    -0.01   0.01   0.00    -0.21   0.08   0.05    -0.02   0.01   0.01
  12   1     0.01  -0.00   0.01     0.14  -0.07   0.11     0.02  -0.01   0.01
  13   6    -0.00   0.01   0.01     0.09  -0.10   0.01    -0.00  -0.02  -0.01
  14   1     0.00   0.01   0.00     0.14   0.09   0.14     0.01   0.01   0.01
  15   1    -0.01   0.01   0.00    -0.14   0.03  -0.10    -0.02   0.00  -0.01
  16   1     0.00  -0.00   0.00     0.10  -0.25  -0.01     0.00  -0.02  -0.00
  17   6     0.00   0.00   0.01    -0.05   0.00  -0.21     0.00   0.00  -0.01
  18   1     0.00   0.00   0.00     0.20   0.22  -0.22     0.01   0.02  -0.01
  19   1     0.00  -0.00   0.00    -0.03  -0.02   0.27     0.00  -0.00   0.01
  20   1    -0.00  -0.00   0.00    -0.21  -0.20  -0.25    -0.00  -0.01  -0.01
  21   1    -0.01   0.00  -0.02    -0.06  -0.01   0.07    -0.01  -0.00   0.01
  22   6     0.00   0.00  -0.00    -0.00  -0.00   0.00     0.00   0.00  -0.00
  23   8     0.00   0.00  -0.00    -0.00  -0.00   0.00     0.00   0.00  -0.00
  24   7    -0.00  -0.00   0.01     0.00   0.00  -0.01    -0.00  -0.00   0.00
  25   1     0.00   0.00  -0.01    -0.00  -0.01   0.01     0.00   0.00  -0.00
  26   1     0.00   0.01  -0.01    -0.00  -0.00   0.01     0.00   0.00  -0.01
  27   7    -0.00  -0.00   0.00    -0.00   0.00  -0.01    -0.00  -0.00   0.00
  28   1    -0.00  -0.00   0.00    -0.00  -0.00   0.01     0.00   0.00  -0.01
  29   1    -0.00  -0.00   0.00    -0.00  -0.00   0.01     0.00   0.00  -0.00
  30   6     0.01  -0.01   0.02     0.03   0.02  -0.01     0.00   0.01  -0.03
  31   8    -0.02  -0.00  -0.04     0.05   0.03  -0.02     0.00   0.01  -0.03
  32   7     0.04   0.09  -0.27    -0.02   0.05   0.01    -0.01  -0.00   0.05
  33   1    -0.00  -0.13   0.47    -0.00   0.03   0.00    -0.00   0.01  -0.02
  34   1     0.05  -0.20   0.71    -0.02   0.00   0.01    -0.01   0.01  -0.04
  35   7     0.02   0.01   0.01     0.03  -0.03  -0.01     0.00  -0.01   0.03
  36   1     0.00   0.06  -0.27     0.00  -0.01   0.00    -0.00   0.01  -0.08
  37   1    -0.01   0.03  -0.12     0.01  -0.01  -0.00     0.00   0.01  -0.03
  38   6     0.01   0.00  -0.01    -0.00  -0.01  -0.00    -0.00  -0.01   0.01
  39   8     0.02  -0.02  -0.00    -0.02  -0.02  -0.00    -0.00  -0.02   0.01
  40   7    -0.00   0.03   0.02    -0.00  -0.00  -0.00    -0.00   0.02   0.03
  41   1    -0.01   0.00   0.01    -0.00  -0.00   0.00     0.01   0.00   0.02
  42   1    -0.02   0.01   0.00     0.01   0.01   0.00     0.01   0.01   0.01
  43   7     0.02   0.01  -0.03    -0.00  -0.00  -0.01    -0.01  -0.00   0.01
  44   1    -0.00   0.00  -0.01     0.01   0.00  -0.01     0.01   0.00  -0.00
  45   1     0.00   0.00  -0.01     0.01  -0.00  -0.00     0.01  -0.00   0.00
  46   6    -0.03  -0.04   0.02     0.02   0.00   0.01    -0.02  -0.01   0.01
  47   8    -0.08  -0.09   0.09     0.00   0.03   0.01     0.02  -0.05  -0.02
  48   7     0.05   0.03   0.02    -0.02  -0.03   0.02     0.18   0.10  -0.25
  49   1    -0.00  -0.00   0.04     0.02   0.00  -0.03    -0.29  -0.09   0.37
  50   1     0.01   0.02  -0.00     0.04  -0.01  -0.04    -0.47  -0.06   0.57
  51   7    -0.03  -0.02  -0.05     0.04   0.00  -0.00     0.00   0.02   0.02
  52   1     0.01   0.00  -0.03     0.00   0.00   0.01     0.17   0.01  -0.20
  53   1    -0.01  -0.01  -0.02    -0.01  -0.01   0.01     0.06  -0.01  -0.06
                     31                     32                     33
                        a                      a                      a 
 Frequencies --   285.4093               312.8586               318.0096
 Red. masses --     6.2500                 1.7065                 6.6393
 Frc consts  --     0.0000                 0.0000                 0.0000
 IR Inten    --     0.7091                 1.8371                68.5988
 Raman Activ --     0.0000                 0.0000                 0.0000
 Depolar     --     0.0000                 0.0000                 0.0000
 Atom AN      X      Y      Z        X      Y      Z        X      Y      Z
   1   8     0.02   0.10  -0.00     0.00  -0.04  -0.04     0.23   0.03  -0.25
   2   6    -0.29  -0.18  -0.20    -0.05  -0.10   0.03     0.12  -0.10  -0.03
   3   1    -0.13  -0.24   0.01    -0.02  -0.05   0.02     0.03  -0.04  -0.00
   4   1    -0.20  -0.01  -0.19    -0.03  -0.02   0.01     0.01  -0.02  -0.00
   5   6     0.05   0.09  -0.01     0.03  -0.09   0.06     0.02  -0.08  -0.01
   6   1     0.03   0.04   0.01    -0.01  -0.05   0.02    -0.01  -0.04  -0.04
   7   1     0.00   0.03   0.04     0.04  -0.04   0.03     0.02  -0.03   0.01
   8   7     0.10   0.07  -0.01     0.05   0.02   0.02    -0.11   0.03   0.07
   9   6     0.23   0.01   0.27    -0.00   0.06   0.06    -0.14   0.04   0.17
  10   1     0.09   0.04   0.15     0.02  -0.00  -0.19    -0.08   0.01   0.26
  11   1     0.11  -0.09   0.08    -0.21   0.09   0.11     0.14  -0.08  -0.02
  12   1     0.04   0.03   0.05     0.15  -0.02   0.16    -0.18   0.10  -0.07
  13   6    -0.18  -0.08  -0.20    -0.02   0.09  -0.01     0.09   0.19   0.23
  14   1     0.04   0.07  -0.01     0.22   0.28   0.15     0.14   0.18   0.16
  15   1    -0.18   0.03  -0.20    -0.33   0.16  -0.19    -0.14   0.12   0.05
  16   1    -0.08  -0.21  -0.01     0.06  -0.35   0.01     0.12  -0.09   0.03
  17   6     0.15   0.15   0.13     0.05   0.01  -0.08    -0.19  -0.05  -0.23
  18   1     0.15   0.23  -0.05    -0.16  -0.24   0.11     0.06  -0.01  -0.14
  19   1     0.06   0.02   0.27     0.03   0.02  -0.35    -0.09  -0.01   0.01
  20   1    -0.06  -0.09  -0.07     0.17   0.22   0.15    -0.15  -0.06  -0.15
  21   1     0.06   0.01   0.02     0.02  -0.02  -0.01     0.08  -0.01  -0.09
  22   6    -0.01  -0.01  -0.01    -0.01  -0.01   0.01     0.01   0.01  -0.05
  23   8    -0.01  -0.01  -0.01    -0.01  -0.01   0.00     0.00  -0.00  -0.01
  24   7     0.00  -0.01   0.00     0.01   0.00  -0.02    -0.02  -0.06   0.12
  25   1     0.00  -0.00  -0.01    -0.00  -0.01   0.02     0.04   0.05  -0.12
  26   1     0.01   0.00  -0.01    -0.00  -0.01   0.03     0.05   0.08  -0.23
  27   7    -0.01   0.00   0.01    -0.00   0.01  -0.02    -0.05  -0.02   0.11
  28   1     0.00   0.01  -0.01    -0.01  -0.00   0.02     0.07   0.06  -0.21
  29   1    -0.00   0.00  -0.01    -0.01  -0.00   0.02     0.03   0.04  -0.11
  30   6    -0.02  -0.01   0.01     0.00   0.00  -0.00    -0.02  -0.01   0.03
  31   8    -0.03  -0.02   0.02    -0.00   0.01  -0.01    -0.01  -0.01   0.06
  32   7     0.02  -0.04  -0.02    -0.01   0.01   0.01     0.00  -0.01  -0.02
  33   1     0.00  -0.03   0.01    -0.00   0.01  -0.01     0.00  -0.01   0.01
  34   1     0.02  -0.01   0.01    -0.01   0.00  -0.01     0.01   0.00  -0.01
  35   7    -0.02  -0.00  -0.00     0.00   0.02  -0.00    -0.01   0.01  -0.01
  36   1    -0.00   0.00  -0.01     0.00   0.00   0.02    -0.00  -0.00   0.02
  37   1    -0.01  -0.00   0.00    -0.00   0.01   0.00    -0.00  -0.00   0.02
  38   6    -0.01  -0.00   0.00    -0.00   0.00  -0.01     0.01  -0.01   0.01
  39   8    -0.01  -0.00   0.00     0.01   0.01  -0.01     0.01  -0.00   0.00
  40   7     0.01  -0.00  -0.01     0.03   0.00   0.00    -0.04  -0.01  -0.00
  41   1     0.00  -0.00  -0.00    -0.04  -0.00  -0.00     0.05   0.00   0.00
  42   1     0.01  -0.00  -0.00    -0.06  -0.01  -0.01     0.06   0.01   0.01
  43   7    -0.01  -0.00  -0.00     0.01   0.00   0.00    -0.02  -0.01  -0.01
  44   1    -0.00  -0.00   0.00     0.01  -0.00  -0.00    -0.03  -0.00   0.00
  45   1     0.00  -0.00  -0.00    -0.01   0.00   0.00     0.01  -0.00  -0.00
  46   6     0.01  -0.00   0.00    -0.02   0.00  -0.01     0.01   0.00   0.00
  47   8     0.01   0.01  -0.00    -0.01  -0.01  -0.00     0.01   0.01  -0.00
  48   7    -0.00  -0.01   0.01    -0.00   0.02  -0.00     0.00  -0.01  -0.01
  49   1    -0.00  -0.00  -0.00     0.01   0.01  -0.00    -0.01  -0.00   0.01
  50   1     0.00  -0.00  -0.00     0.01   0.01  -0.01    -0.02  -0.01   0.02
  51   7     0.00  -0.00   0.00    -0.02  -0.00   0.01     0.02   0.00  -0.00
  52   1     0.01   0.00  -0.01    -0.01  -0.01   0.01     0.01   0.00  -0.01
  53   1    -0.00  -0.00   0.00     0.01   0.01  -0.01    -0.01  -0.00   0.01
                     34                     35                     36
                        a                      a                      a 
 Frequencies --   323.2354               346.1207               371.4380
 Red. masses --     4.4805                 4.2357                 6.8995
 Frc consts  --     0.0000                 0.0000                 0.0000
 IR Inten    --   466.0109                 3.2259                30.6646
 Raman Activ --     0.0000                 0.0000                 0.0000
 Depolar     --     0.0000                 0.0000                 0.0000
 Atom AN      X      Y      Z        X      Y      Z        X      Y      Z
   1   8    -0.13  -0.02   0.15    -0.17  -0.04   0.18    -0.03  -0.01   0.13
   2   6    -0.04   0.07   0.03     0.07   0.19   0.08     0.02   0.01   0.20
   3   1    -0.00   0.04  -0.00     0.05   0.15  -0.02     0.04   0.09   0.01
   4   1     0.01   0.01   0.02     0.09   0.03   0.08     0.04   0.00   0.16
   5   6    -0.01   0.02   0.00    -0.02  -0.05  -0.02    -0.07  -0.28   0.06
   6   1    -0.00   0.00   0.03    -0.02  -0.04   0.04    -0.08  -0.16   0.02
   7   1    -0.00   0.01  -0.01     0.03  -0.03  -0.06     0.09  -0.12   0.01
   8   7     0.06  -0.02  -0.05     0.02  -0.10  -0.06    -0.03  -0.03  -0.05
   9   6     0.06  -0.02  -0.11    -0.05  -0.09  -0.23     0.18  -0.11   0.15
  10   1     0.03  -0.01  -0.12    -0.07  -0.02   0.28     0.09   0.02   0.11
  11   1    -0.06   0.04  -0.00     0.33  -0.13  -0.22     0.09  -0.13   0.05
  12   1     0.08  -0.04   0.02    -0.28   0.06  -0.31     0.04  -0.01   0.04
  13   6    -0.04  -0.08  -0.13    -0.04  -0.00  -0.09    -0.22   0.22  -0.15
  14   1    -0.04  -0.05  -0.06     0.13   0.16   0.06    -0.09   0.04  -0.17
  15   1     0.02  -0.04  -0.05    -0.22   0.08  -0.14    -0.03   0.05   0.03
  16   1    -0.05   0.00  -0.02     0.03  -0.23  -0.01    -0.13   0.18  -0.01
  17   6     0.11   0.03   0.09     0.16   0.06   0.16     0.11   0.13  -0.35
  18   1    -0.04  -0.01   0.07    -0.02   0.05   0.08     0.09   0.05  -0.14
  19   1     0.06   0.00  -0.03     0.10  -0.00   0.03     0.09   0.02  -0.10
  20   1     0.09   0.05   0.08     0.09   0.05   0.08    -0.04   0.10  -0.14
  21   1    -0.05   0.01   0.05    -0.09   0.01   0.06    -0.02  -0.01   0.00
  22   6     0.03   0.03  -0.09    -0.01  -0.01  -0.00     0.00   0.00   0.00
  23   8     0.01   0.01   0.01    -0.00  -0.00  -0.01    -0.00  -0.00   0.01
  24   7    -0.06  -0.12   0.26     0.01   0.00  -0.03    -0.00   0.00  -0.00
  25   1     0.07   0.11  -0.24    -0.00  -0.01   0.02    -0.00   0.00   0.00
  26   1     0.11   0.18  -0.51    -0.01  -0.02   0.06    -0.00   0.00  -0.01
  27   7    -0.09  -0.05   0.22     0.00   0.01  -0.02     0.00  -0.00   0.00
  28   1     0.14   0.11  -0.43    -0.01  -0.01   0.04     0.00  -0.00  -0.00
  29   1     0.08   0.07  -0.21    -0.01  -0.00   0.02     0.00   0.00  -0.00
  30   6     0.01   0.00  -0.01     0.01   0.01  -0.03     0.01  -0.00   0.01
  31   8     0.00   0.01  -0.02     0.01   0.01  -0.03     0.00  -0.00   0.00
  32   7    -0.00   0.01   0.01    -0.00   0.01   0.02    -0.01   0.02  -0.01
  33   1     0.00   0.01  -0.01    -0.00   0.01  -0.01    -0.00   0.01   0.00
  34   1    -0.00   0.00  -0.01    -0.01   0.00  -0.01    -0.01  -0.00   0.00
  35   7     0.01  -0.00  -0.00     0.01  -0.01   0.02     0.01   0.01  -0.02
  36   1     0.00  -0.00   0.01     0.00   0.00  -0.03     0.01  -0.01   0.06
  37   1     0.00  -0.00  -0.00     0.00   0.00  -0.02     0.00   0.00   0.01
  38   6     0.00  -0.00  -0.00     0.01   0.00   0.01    -0.02   0.00  -0.01
  39   8    -0.00  -0.00  -0.00    -0.00  -0.00   0.01    -0.02   0.00  -0.01
  40   7    -0.02   0.00   0.00    -0.05  -0.00   0.00     0.16   0.03   0.04
  41   1     0.01   0.00   0.01     0.05   0.00   0.01    -0.16  -0.00  -0.01
  42   1     0.02   0.01   0.00     0.08   0.02   0.01    -0.34  -0.07  -0.03
  43   7     0.02   0.01   0.00     0.02   0.00   0.01    -0.02  -0.01   0.01
  44   1     0.02   0.00  -0.00     0.00   0.00   0.00     0.06   0.01  -0.01
  45   1    -0.00  -0.00   0.00    -0.00  -0.00   0.00    -0.00  -0.00  -0.00
  46   6    -0.01  -0.00  -0.00    -0.01  -0.00  -0.00     0.01   0.01  -0.00
  47   8    -0.01  -0.01   0.00    -0.01  -0.01   0.00     0.01   0.00   0.00
  48   7    -0.00   0.01   0.01    -0.00   0.01   0.00    -0.01  -0.01  -0.00
  49   1     0.01   0.00  -0.01     0.00   0.00  -0.00     0.00  -0.00  -0.01
  50   1     0.02   0.01  -0.02     0.01   0.00  -0.01    -0.00  -0.01   0.00
  51   7    -0.01  -0.00  -0.01    -0.01  -0.00  -0.00    -0.00   0.00   0.02
  52   1    -0.02  -0.00   0.02    -0.00  -0.00   0.00     0.02   0.00  -0.02
  53   1     0.00   0.00  -0.00     0.00   0.00   0.00     0.01  -0.00  -0.01
                     37                     38                     39
                        a                      a                      a 
 Frequencies --   378.9056               390.4054               437.1078
 Red. masses --     4.1331                 3.2147                 3.0482
 Frc consts  --     0.0000                 0.0000                 0.0000
 IR Inten    --   140.2931               276.1369               232.3335
 Raman Activ --     0.0000                 0.0000                 0.0000
 Depolar     --     0.0000                 0.0000                 0.0000
 Atom AN      X      Y      Z        X      Y      Z        X      Y      Z
   1   8    -0.03   0.01   0.06    -0.02  -0.01   0.02    -0.01  -0.00   0.02
   2   6    -0.03   0.00   0.08     0.00   0.01   0.01    -0.01   0.01  -0.01
   3   1     0.00   0.02   0.01     0.00   0.01   0.00     0.00   0.00  -0.01
   4   1     0.00  -0.00   0.05     0.01  -0.00   0.00    -0.00   0.00  -0.00
   5   6    -0.01  -0.15   0.04     0.00   0.01   0.01    -0.00  -0.00  -0.02
   6   1    -0.04  -0.09   0.02     0.00   0.01   0.00    -0.00  -0.00  -0.00
   7   1     0.06  -0.06   0.01    -0.00   0.00  -0.00    -0.00  -0.00  -0.01
   8   7     0.02  -0.01  -0.01     0.01  -0.00   0.00     0.01  -0.02  -0.02
   9   6     0.09  -0.04   0.10     0.00  -0.00  -0.03    -0.03  -0.00   0.02
  10   1     0.05   0.01  -0.02     0.00  -0.00  -0.01    -0.01  -0.01   0.00
  11   1    -0.03  -0.03   0.07     0.01   0.00  -0.01    -0.02  -0.00   0.01
  12   1     0.08  -0.01   0.08    -0.00  -0.01  -0.01     0.00   0.01   0.02
  13   6    -0.11   0.11  -0.08    -0.00  -0.02  -0.01     0.02   0.03  -0.02
  14   1    -0.05   0.01  -0.10    -0.00  -0.01   0.00     0.01   0.01  -0.01
  15   1    -0.01   0.02   0.02    -0.00  -0.01  -0.01     0.00   0.01   0.01
  16   1    -0.08   0.10  -0.00    -0.00  -0.01   0.00     0.01   0.02  -0.01
  17   6     0.06   0.04  -0.17     0.01   0.00   0.03     0.01  -0.02   0.00
  18   1     0.03  -0.01  -0.06    -0.01  -0.00   0.01     0.00  -0.01   0.00
  19   1     0.04   0.01  -0.08    -0.00   0.00  -0.00     0.00  -0.01  -0.01
  20   1    -0.01   0.06  -0.06     0.01   0.00   0.01     0.01  -0.00   0.01
  21   1    -0.02  -0.00  -0.02    -0.02  -0.01  -0.03    -0.00   0.00   0.02
  22   6     0.00  -0.00   0.01    -0.00  -0.00   0.00    -0.00   0.00   0.00
  23   8    -0.00  -0.00   0.00    -0.00   0.00  -0.00    -0.01   0.00   0.00
  24   7     0.00   0.01  -0.01     0.00   0.00  -0.01     0.01   0.00   0.01
  25   1    -0.00  -0.00   0.01    -0.00  -0.00   0.00     0.00  -0.00  -0.00
  26   1    -0.01  -0.01   0.03    -0.00  -0.00   0.01     0.01   0.01  -0.01
  27   7     0.01   0.00  -0.01     0.00   0.00  -0.01    -0.00  -0.01   0.00
  28   1    -0.01  -0.01   0.03    -0.01  -0.00   0.02     0.00  -0.00  -0.01
  29   1    -0.00  -0.00   0.01    -0.00  -0.00   0.00     0.01  -0.01   0.00
  30   6     0.01   0.01  -0.02     0.01  -0.02   0.16    -0.00   0.01  -0.02
  31   8     0.00   0.00  -0.01    -0.01  -0.01   0.06     0.00   0.01  -0.01
  32   7    -0.00   0.01   0.02     0.00   0.06  -0.22     0.01  -0.01   0.03
  33   1    -0.00   0.01  -0.00    -0.00  -0.03   0.07     0.00  -0.00  -0.02
  34   1    -0.01   0.01  -0.01     0.02  -0.05   0.20     0.00   0.01  -0.02
  35   7     0.01   0.01   0.03    -0.01   0.04  -0.28    -0.00  -0.00   0.03
  36   1     0.00   0.02  -0.07     0.02  -0.17   0.82    -0.00   0.03  -0.12
  37   1    -0.00   0.01  -0.01     0.01  -0.03   0.11    -0.00  -0.00   0.01
  38   6     0.04  -0.00   0.01     0.00  -0.00   0.01    -0.01   0.00   0.04
  39   8     0.04  -0.01   0.01    -0.00   0.01   0.01    -0.01   0.02   0.03
  40   7    -0.34  -0.06  -0.06    -0.04  -0.02  -0.01     0.02  -0.03   0.01
  41   1     0.29   0.01   0.05     0.04   0.00  -0.00    -0.07  -0.02   0.01
  42   1     0.71   0.17   0.07     0.10   0.01   0.01     0.08   0.01   0.01
  43   7     0.04  -0.00   0.01     0.02   0.01   0.00     0.05   0.00  -0.02
  44   1    -0.10  -0.01   0.03    -0.02   0.00   0.00    -0.14  -0.01   0.03
  45   1     0.01   0.00   0.01    -0.01  -0.01  -0.01    -0.03  -0.00  -0.01
  46   6    -0.02  -0.01   0.00     0.02   0.02  -0.03     0.07   0.00  -0.12
  47   8    -0.03  -0.01   0.00     0.02   0.00  -0.03     0.04  -0.03  -0.07
  48   7     0.01   0.03   0.00    -0.03  -0.01  -0.02    -0.15   0.00   0.15
  49   1     0.01   0.00   0.01     0.04   0.01  -0.04     0.12   0.04  -0.10
  50   1     0.01   0.02  -0.01    -0.09  -0.01   0.10     0.07   0.05  -0.11
  51   7     0.01  -0.01  -0.03    -0.01   0.01   0.03    -0.14   0.00   0.23
  52   1    -0.05  -0.01   0.05     0.09   0.01  -0.10     0.54   0.05  -0.66
  53   1    -0.01   0.00   0.01     0.00  -0.00  -0.01    -0.01  -0.04  -0.02
                     40                     41                     42
                        a                      a                      a 
 Frequencies --   443.0563               445.0997               456.2851
 Red. masses --     8.4713                 1.9214                 8.3583
 Frc consts  --     0.0000                 0.0000                 0.0000
 IR Inten    --    10.8174                 9.6073                13.5049
 Raman Activ --     0.0000                 0.0000                 0.0000
 Depolar     --     0.0000                 0.0000                 0.0000
 Atom AN      X      Y      Z        X      Y      Z        X      Y      Z
   1   8    -0.12   0.01   0.21    -0.03   0.00   0.06     0.03   0.01  -0.06
   2   6    -0.09   0.08  -0.08    -0.02   0.02  -0.02     0.02  -0.02   0.02
   3   1    -0.03   0.00  -0.02    -0.01   0.00  -0.00    -0.00  -0.02   0.02
   4   1    -0.02   0.02  -0.04    -0.01   0.01  -0.01    -0.00  -0.00  -0.01
   5   6     0.13  -0.05  -0.06     0.04  -0.02  -0.01    -0.00   0.08   0.04
   6   1     0.00  -0.06   0.04    -0.00  -0.03   0.01     0.04   0.08   0.00
   7   1     0.09  -0.04  -0.03     0.04  -0.02  -0.01    -0.07   0.05   0.01
   8   7     0.26  -0.07  -0.15     0.07   0.00  -0.04    -0.01  -0.08   0.07
   9   6    -0.29   0.16   0.23    -0.07   0.06   0.05    -0.02  -0.08  -0.05
  10   1    -0.19  -0.07   0.11    -0.05  -0.01   0.03    -0.01  -0.03  -0.04
  11   1    -0.14   0.04   0.09    -0.03   0.01   0.02    -0.01   0.01  -0.02
  12   1    -0.09   0.22   0.09    -0.02   0.06   0.02    -0.01  -0.04  -0.02
  13   6     0.13   0.20  -0.23     0.04   0.04  -0.07    -0.07   0.01   0.05
  14   1     0.05   0.07  -0.14     0.01   0.01  -0.03    -0.01   0.02  -0.02
  15   1     0.01   0.07   0.00     0.00   0.01  -0.01    -0.04   0.01   0.02
  16   1     0.01   0.11  -0.05     0.00   0.02  -0.01    -0.03   0.01   0.02
  17   6     0.05  -0.34   0.03    -0.01  -0.09   0.01     0.08   0.02  -0.04
  18   1     0.01  -0.10   0.01    -0.00  -0.03   0.00     0.04   0.01  -0.02
  19   1    -0.08  -0.07   0.06    -0.04  -0.01   0.02     0.05  -0.01  -0.02
  20   1     0.03  -0.19  -0.00     0.00  -0.06   0.00    -0.00   0.04  -0.02
  21   1    -0.06   0.01   0.06    -0.01   0.00   0.02     0.02  -0.00  -0.01
  22   6    -0.04   0.04   0.00     0.04  -0.03   0.00    -0.23   0.20  -0.00
  23   8    -0.05   0.04  -0.00     0.03  -0.04  -0.00    -0.25   0.22  -0.00
  24   7     0.06   0.01   0.04     0.00   0.02  -0.12     0.37   0.10   0.09
  25   1     0.07  -0.01  -0.10    -0.19  -0.08   0.46     0.15  -0.23   0.10
  26   1     0.03   0.01   0.13     0.02   0.08  -0.45     0.25   0.21   0.02
  27   7     0.01  -0.07  -0.04    -0.01   0.01   0.11    -0.05  -0.38  -0.09
  28   1    -0.00  -0.04  -0.12    -0.09  -0.04   0.45    -0.17  -0.28  -0.03
  29   1     0.03  -0.07   0.10     0.06   0.18  -0.44     0.25  -0.12  -0.09
  30   6     0.03  -0.01  -0.01     0.01  -0.01  -0.00    -0.02   0.01   0.01
  31   8    -0.01  -0.03  -0.01    -0.00  -0.01  -0.00     0.00   0.02   0.01
  32   7    -0.03   0.03   0.00    -0.01   0.01   0.00     0.02  -0.01  -0.00
  33   1    -0.01   0.04   0.02    -0.00   0.01   0.01     0.01  -0.02  -0.01
  34   1    -0.04  -0.01  -0.00    -0.01  -0.00  -0.00     0.03   0.00   0.00
  35   7     0.03   0.02  -0.00     0.01   0.01   0.00    -0.02  -0.02  -0.00
  36   1     0.02   0.00   0.03     0.01   0.00   0.00    -0.01  -0.01  -0.00
  37   1     0.00   0.01  -0.00    -0.00   0.00   0.00     0.00  -0.01  -0.00
  38   6    -0.00   0.01   0.04    -0.00   0.00   0.01     0.00  -0.01  -0.03
  39   8    -0.00  -0.00   0.04    -0.00   0.00   0.01     0.01  -0.00  -0.03
  40   7     0.04  -0.04  -0.02     0.01  -0.01  -0.01    -0.03   0.03   0.01
  41   1    -0.01  -0.00  -0.04    -0.02  -0.00  -0.01     0.04   0.01   0.02
  42   1    -0.03  -0.06  -0.00    -0.00  -0.01  -0.00    -0.01   0.02  -0.00
  43   7     0.01   0.04  -0.07     0.00   0.01  -0.02    -0.01  -0.02   0.04
  44   1    -0.05   0.02  -0.01    -0.03   0.00  -0.00     0.08  -0.00  -0.01
  45   1     0.02  -0.00  -0.03     0.01   0.00  -0.01    -0.01  -0.00   0.01
  46   6    -0.00   0.00   0.01     0.00   0.00   0.00     0.01   0.01   0.00
  47   8    -0.01   0.01   0.01     0.00   0.00   0.00     0.01  -0.00   0.01
  48   7     0.01  -0.01  -0.01     0.00  -0.00  -0.00    -0.00  -0.01  -0.00
  49   1    -0.01  -0.00   0.00    -0.00  -0.00  -0.00    -0.02  -0.00   0.00
  50   1    -0.02  -0.01   0.03    -0.00  -0.00   0.01     0.01  -0.01  -0.01
  51   7     0.01   0.00  -0.03     0.00   0.00  -0.01    -0.01   0.01   0.00
  52   1    -0.05   0.00   0.05    -0.01   0.00   0.01     0.00   0.01  -0.01
  53   1    -0.01   0.00   0.01    -0.00  -0.00   0.00     0.00   0.00  -0.01
                     43                     44                     45
                        a                      a                      a 
 Frequencies --   459.4136               462.5033               462.8511
 Red. masses --     5.9488                 7.8031                 3.8461
 Frc consts  --     0.0000                 0.0000                 0.0000
 IR Inten    --    80.6552                 6.8999               109.0354
 Raman Activ --     0.0000                 0.0000                 0.0000
 Depolar     --     0.0000                 0.0000                 0.0000
 Atom AN      X      Y      Z        X      Y      Z        X      Y      Z
   1   8    -0.01   0.01   0.02    -0.02  -0.01   0.04     0.00   0.00  -0.01
   2   6    -0.01   0.00   0.01    -0.02   0.06  -0.23     0.01  -0.02   0.07
   3   1    -0.01  -0.01   0.01     0.03   0.03  -0.11    -0.00  -0.00   0.03
   4   1    -0.01   0.00  -0.01     0.02   0.01  -0.04    -0.00  -0.00   0.02
   5   6     0.06  -0.02   0.03    -0.18   0.04  -0.25     0.05  -0.01   0.07
   6   1    -0.00  -0.03   0.01    -0.00   0.06  -0.05    -0.00  -0.02   0.01
   7   1     0.04  -0.02   0.01    -0.11   0.03  -0.10     0.03  -0.01   0.03
   8   7     0.05   0.04   0.01    -0.15  -0.24  -0.13     0.05   0.08   0.03
   9   6    -0.02   0.07   0.01    -0.07  -0.29   0.20     0.02   0.10  -0.06
  10   1    -0.02   0.00   0.01     0.01  -0.05   0.03    -0.01   0.02   0.00
  11   1    -0.01   0.03   0.00    -0.11  -0.14   0.11     0.04   0.04  -0.04
  12   1    -0.02   0.03  -0.00     0.05  -0.04   0.13    -0.02   0.02  -0.04
  13   6    -0.01  -0.01  -0.04     0.17   0.21   0.15    -0.04  -0.07  -0.05
  14   1    -0.01  -0.01  -0.02     0.09   0.10   0.05    -0.02  -0.03  -0.01
  15   1     0.00  -0.01  -0.03     0.00   0.09   0.20     0.00  -0.03  -0.07
  16   1    -0.02  -0.01   0.00     0.15   0.13  -0.04    -0.04  -0.04   0.01
  17   6    -0.04  -0.06  -0.01     0.19   0.13   0.13    -0.06  -0.04  -0.03
  18   1    -0.00  -0.04  -0.01    -0.02   0.14   0.07     0.00  -0.04  -0.02
  19   1    -0.05  -0.00  -0.00     0.18  -0.01   0.04    -0.06   0.00  -0.01
  20   1    -0.01  -0.03  -0.01     0.09   0.10   0.08    -0.02  -0.04  -0.02
  21   1    -0.02  -0.00  -0.02    -0.01   0.01   0.05     0.00  -0.01  -0.01
  22   6     0.02  -0.02   0.00     0.01  -0.02  -0.00    -0.01   0.01   0.00
  23   8     0.02  -0.02   0.00     0.02  -0.01   0.00    -0.02   0.01  -0.00
  24   7    -0.03  -0.01  -0.01    -0.02  -0.01  -0.01     0.02   0.01   0.01
  25   1    -0.01   0.02  -0.01    -0.02   0.01   0.01     0.01  -0.01  -0.00
  26   1    -0.02  -0.02   0.00    -0.01  -0.01  -0.02     0.01   0.01   0.00
  27   7     0.01   0.03   0.01    -0.00   0.03   0.01    -0.00  -0.02  -0.01
  28   1     0.01   0.02   0.01     0.01   0.02   0.02    -0.00  -0.01  -0.03
  29   1    -0.02   0.01   0.00    -0.02   0.02  -0.01     0.01  -0.01   0.02
  30   6     0.02  -0.02  -0.01    -0.02   0.02   0.00     0.01  -0.02   0.00
  31   8     0.00  -0.04  -0.01    -0.00   0.04   0.00    -0.00  -0.03  -0.00
  32   7    -0.04   0.02   0.00     0.04  -0.01  -0.01    -0.03   0.01  -0.01
  33   1    -0.01   0.04   0.02     0.01  -0.04   0.01    -0.01   0.02   0.04
  34   1    -0.04  -0.01  -0.00     0.03   0.01  -0.01    -0.03  -0.00  -0.02
  35   7     0.03   0.04   0.00    -0.03  -0.04  -0.01     0.02   0.02  -0.00
  36   1     0.03   0.02   0.01    -0.02  -0.03   0.04     0.02   0.00   0.04
  37   1    -0.01   0.02   0.01     0.01  -0.02  -0.02    -0.00   0.01  -0.00
  38   6     0.00  -0.05  -0.16     0.01  -0.02  -0.05     0.03  -0.05  -0.05
  39   8     0.05  -0.03  -0.18     0.01   0.03  -0.06    -0.02   0.12  -0.09
  40   7    -0.17   0.19   0.07     0.00   0.04   0.03     0.11   0.04   0.08
  41   1     0.31   0.05   0.11    -0.11  -0.02   0.08    -0.51  -0.08   0.20
  42   1    -0.12   0.12  -0.01     0.04   0.09   0.00     0.17   0.22   0.01
  43   7    -0.06  -0.15   0.24     0.01  -0.06   0.04     0.06  -0.11  -0.01
  44   1     0.52  -0.02  -0.06    -0.00  -0.04   0.02    -0.35  -0.14   0.11
  45   1    -0.09  -0.03   0.07     0.00   0.00   0.03     0.09   0.03   0.07
  46   6     0.10   0.08   0.06     0.03   0.03   0.01     0.08   0.07   0.06
  47   8     0.15  -0.04   0.10     0.06  -0.03   0.02     0.13  -0.05   0.08
  48   7    -0.06  -0.15  -0.05    -0.01  -0.03  -0.04    -0.02  -0.11  -0.09
  49   1    -0.24  -0.04  -0.02    -0.17  -0.03   0.07    -0.32  -0.06   0.07
  50   1     0.13  -0.17  -0.11     0.09  -0.06  -0.09     0.13  -0.17  -0.11
  51   7    -0.15   0.14  -0.02    -0.05   0.05  -0.00    -0.12   0.12  -0.06
  52   1     0.05   0.12  -0.15    -0.04   0.02   0.02    -0.08   0.08   0.02
  53   1    -0.05  -0.02  -0.08     0.02   0.01  -0.03    -0.03   0.00  -0.07
                     46                     47                     48
                        a                      a                      a 
 Frequencies --   469.6305               471.1717               475.3291
 Red. masses --     3.4376                 3.7862                 6.8956
 Frc consts  --     0.0000                 0.0000                 0.0000
 IR Inten    --     1.7609                 6.0026                 9.2330
 Raman Activ --     0.0000                 0.0000                 0.0000
 Depolar     --     0.0000                 0.0000                 0.0000
 Atom AN      X      Y      Z        X      Y      Z        X      Y      Z
   1   8     0.01   0.01  -0.01     0.00   0.01   0.01    -0.03  -0.03   0.06
   2   6    -0.00   0.00  -0.01    -0.01   0.02  -0.06    -0.02   0.03  -0.07
   3   1     0.00   0.00  -0.01     0.01   0.01  -0.03     0.04   0.06  -0.07
   4   1     0.00   0.00   0.00     0.00   0.00  -0.00     0.02   0.00   0.06
   5   6    -0.02  -0.02  -0.02    -0.03  -0.04  -0.06    -0.11  -0.24  -0.15
   6   1    -0.02  -0.02  -0.01    -0.03  -0.04  -0.01    -0.14  -0.20  -0.03
   7   1     0.01  -0.01  -0.00     0.03  -0.03  -0.02     0.15  -0.13  -0.04
   8   7    -0.04   0.03  -0.01    -0.05   0.02  -0.04    -0.13   0.21  -0.18
   9   6     0.06  -0.00  -0.01     0.04  -0.01   0.05     0.21   0.10   0.12
  10   1     0.03   0.02  -0.00     0.03   0.02   0.02     0.12   0.10   0.08
  11   1     0.02  -0.01  -0.00     0.01  -0.03   0.02     0.06  -0.09   0.06
  12   1     0.02  -0.02   0.00     0.02  -0.00   0.02     0.09   0.03   0.06
  13   6     0.02  -0.03   0.02     0.06  -0.01   0.03     0.22  -0.12  -0.01
  14   1    -0.00  -0.02   0.03     0.01  -0.01   0.04     0.03  -0.07   0.12
  15   1     0.02  -0.01  -0.00     0.03  -0.01   0.01     0.12  -0.06  -0.03
  16   1     0.02  -0.02  -0.00     0.05  -0.01  -0.01     0.14  -0.07  -0.05
  17   6    -0.03   0.05   0.02    -0.03   0.05   0.05    -0.23   0.13   0.14
  18   1    -0.01   0.02   0.01    -0.03   0.03   0.03    -0.14   0.04   0.08
  19   1    -0.00   0.01   0.01     0.00   0.01   0.02    -0.09   0.04   0.05
  20   1    -0.00   0.01   0.01     0.01   0.01   0.03     0.01  -0.02   0.09
  21   1    -0.01  -0.00  -0.02    -0.01  -0.00  -0.01    -0.02  -0.00   0.01
  22   6    -0.01   0.01  -0.00    -0.02   0.02  -0.00    -0.05   0.05  -0.00
  23   8    -0.02   0.01  -0.00    -0.02   0.02  -0.00    -0.07   0.05  -0.01
  24   7     0.02   0.01   0.01     0.03   0.01   0.01     0.08   0.04   0.03
  25   1     0.01  -0.01  -0.00     0.01  -0.02   0.00     0.04  -0.05   0.01
  26   1     0.01   0.01   0.01     0.02   0.02   0.01     0.06   0.05   0.02
  27   7    -0.00  -0.02  -0.01    -0.01  -0.03  -0.01    -0.01  -0.09  -0.03
  28   1    -0.01  -0.02  -0.00    -0.01  -0.02  -0.01    -0.04  -0.07  -0.02
  29   1     0.02  -0.01  -0.00     0.02  -0.01   0.00     0.06  -0.04  -0.00
  30   6     0.07  -0.08  -0.05     0.08  -0.08  -0.06     0.04  -0.07   0.02
  31   8    -0.02  -0.13  -0.07    -0.01  -0.14  -0.07     0.03  -0.09   0.02
  32   7    -0.10   0.04  -0.04    -0.12   0.04  -0.01    -0.12   0.02   0.03
  33   1    -0.03   0.06   0.53    -0.04   0.08   0.41    -0.02   0.11  -0.31
  34   1    -0.19   0.03  -0.32    -0.19   0.01  -0.26    -0.04  -0.07   0.21
  35   7     0.10   0.11   0.09     0.11   0.12   0.09     0.05   0.11  -0.04
  36   1     0.09   0.03   0.14     0.09   0.06   0.02     0.07   0.06  -0.03
[...]
  44   1     0.02   0.02   0.11     0.00   0.00   0.02    -0.01  -0.01  -0.02
  45   1    -0.03   0.69  -0.61    -0.00   0.09  -0.09    -0.00   0.01  -0.01
  46   6     0.01   0.01   0.01     0.01   0.00   0.01    -0.00   0.00  -0.00
  47   8    -0.00  -0.00  -0.01    -0.01  -0.00  -0.01     0.00  -0.00   0.00
  48   7    -0.00  -0.00  -0.00    -0.00  -0.00  -0.00     0.00  -0.00   0.00
  49   1     0.00   0.01   0.00    -0.00   0.02   0.01     0.00   0.00   0.00
  50   1    -0.00   0.00  -0.00    -0.01  -0.00  -0.00    -0.00  -0.00  -0.00
  51   7     0.02  -0.04   0.02     0.00  -0.01   0.00    -0.00  -0.00   0.00
  52   1     0.02   0.01   0.01     0.01   0.00   0.00     0.00   0.00   0.00
  53   1    -0.10   0.13  -0.11    -0.03   0.04  -0.03    -0.00   0.00  -0.00
                    142                    143                    144
                        a                      a                      a 
 Frequencies --  3499.2408              3500.3328              3501.5372
 Red. masses --     1.4525                 1.4394                 1.4498
 Frc consts  --     0.0000                 0.0000                 0.0000
 IR Inten    --    16.0914                37.0790                18.6780
 Raman Activ --     0.0000                 0.0000                 0.0000
 Depolar     --     0.0000                 0.0000                 0.0000
 Atom AN      X      Y      Z        X      Y      Z        X      Y      Z
   1   8     0.00   0.00  -0.00    -0.00  -0.00   0.00    -0.00  -0.00   0.00
   2   6    -0.00   0.00  -0.00     0.00   0.00   0.00    -0.00   0.00  -0.00
   3   1     0.00  -0.00   0.00    -0.00  -0.00  -0.00     0.00  -0.00   0.00
   4   1     0.00  -0.00  -0.00    -0.00  -0.00   0.00     0.00   0.00  -0.00
   5   6    -0.00  -0.00  -0.00     0.00   0.00   0.00    -0.00  -0.00  -0.00
   6   1    -0.00   0.00   0.00     0.00   0.00   0.00     0.00  -0.00  -0.00
   7   1    -0.00  -0.00  -0.00     0.00  -0.00   0.00    -0.00   0.00   0.00
   8   7     0.00   0.00   0.00    -0.00  -0.00  -0.00     0.00   0.00   0.00
   9   6     0.00  -0.00  -0.00    -0.00   0.00   0.00     0.00  -0.00   0.00
  10   1     0.00  -0.00   0.00     0.00  -0.00   0.00    -0.00   0.00  -0.00
  11   1    -0.00   0.00   0.00    -0.00   0.00  -0.00     0.00  -0.00   0.00
  12   1    -0.00   0.00  -0.00    -0.00   0.00   0.00     0.00   0.00  -0.00
  13   6     0.00  -0.00   0.00    -0.00   0.00   0.00     0.00  -0.00   0.00
  14   1    -0.00   0.00  -0.00     0.00  -0.00   0.00    -0.00  -0.00  -0.00
  15   1    -0.00  -0.00  -0.00    -0.00  -0.00   0.00    -0.00   0.00   0.00
  16   1     0.00   0.00   0.00    -0.00   0.00  -0.00     0.00   0.00   0.00
  17   6     0.00   0.00  -0.00     0.00  -0.00   0.00    -0.00  -0.00  -0.00
  18   1    -0.00   0.00   0.00    -0.00   0.00  -0.00    -0.00  -0.00  -0.00
  19   1    -0.00  -0.00  -0.00     0.00  -0.00   0.00     0.00   0.00   0.00
  20   1    -0.00   0.00   0.00     0.00   0.00   0.00     0.00  -0.00  -0.00
  21   1    -0.00  -0.00   0.00     0.00   0.00  -0.00     0.00   0.01  -0.00
  22   6    -0.00   0.00  -0.00    -0.00  -0.00  -0.00    -0.00   0.00   0.00
  23   8     0.00  -0.00   0.00    -0.00  -0.00  -0.00     0.00  -0.00  -0.00
  24   7    -0.00  -0.00  -0.00     0.00  -0.13  -0.06    -0.00   0.00   0.00
  25   1     0.00   0.00   0.00     0.46   0.14   0.20    -0.01  -0.00  -0.00
  26   1    -0.00   0.00   0.00    -0.47   0.36   0.04     0.01  -0.01  -0.00
  27   7    -0.00  -0.00  -0.00    -0.10  -0.01  -0.04     0.00   0.00   0.00
  28   1     0.00  -0.00   0.00     0.32  -0.31   0.03    -0.01   0.01  -0.00
  29   1     0.00   0.00   0.00     0.05   0.36   0.14    -0.00  -0.01  -0.00
  30   6     0.00  -0.00  -0.00     0.00   0.00   0.00     0.00   0.00   0.00
  31   8    -0.00   0.00   0.00     0.00  -0.00  -0.00     0.00  -0.00  -0.00
  32   7     0.00   0.00   0.00     0.00   0.00   0.00     0.09   0.15   0.05
  33   1    -0.01   0.00  -0.00    -0.02   0.00  -0.00    -0.65   0.06  -0.00
  34   1     0.00  -0.01  -0.00     0.01  -0.01  -0.00     0.32  -0.63  -0.19
  35   7     0.00  -0.00  -0.00    -0.00  -0.00  -0.00    -0.00  -0.01  -0.00
  36   1    -0.00   0.01   0.00    -0.00   0.00   0.00    -0.02   0.03   0.01
  37   1    -0.01  -0.01  -0.00     0.00   0.00   0.00     0.01   0.02   0.00
  38   6    -0.00   0.00  -0.00     0.00   0.00   0.00     0.00   0.00  -0.00
  39   8     0.00  -0.00   0.00    -0.00  -0.00  -0.00    -0.00  -0.00  -0.00
  40   7     0.00   0.00  -0.00    -0.00  -0.00   0.00    -0.00  -0.00   0.00
  41   1     0.00  -0.00  -0.00    -0.00   0.00   0.00    -0.00   0.00   0.00
  42   1    -0.00   0.00   0.00     0.00  -0.00  -0.00     0.00  -0.00  -0.00
  43   7    -0.00  -0.00  -0.00     0.00  -0.00   0.00    -0.00  -0.00   0.00
  44   1     0.00   0.00   0.01    -0.00  -0.00  -0.00     0.00   0.00  -0.00
  45   1    -0.00   0.01  -0.01     0.00   0.00   0.00     0.00   0.00  -0.00
  46   6    -0.00   0.00  -0.00     0.00   0.00   0.00     0.00   0.00  -0.00
  47   8     0.00   0.00   0.00    -0.00  -0.00  -0.00    -0.00  -0.00  -0.00
  48   7    -0.14   0.10  -0.07     0.00  -0.00   0.00     0.00  -0.00   0.00
  49   1    -0.01  -0.62  -0.18     0.00   0.00   0.00     0.00   0.01   0.00
  50   1     0.52   0.25   0.45    -0.00  -0.00  -0.00    -0.01  -0.00  -0.01
  51   7     0.01  -0.00   0.01    -0.00  -0.00  -0.00    -0.00  -0.00  -0.00
  52   1    -0.04  -0.02  -0.03     0.00   0.00   0.00     0.00   0.00   0.00
  53   1    -0.01   0.01  -0.01     0.00  -0.00   0.00     0.00  -0.00   0.00
                    145                    146                    147
                        a                      a                      a 
 Frequencies --  3504.7708              3524.9387              3529.2589
 Red. masses --     1.4621                 1.8979                 1.8880
 Frc consts  --     0.0000                 0.0000                 0.0000
 IR Inten    --     9.5232                15.0475                10.8496
 Raman Activ --     0.0000                 0.0000                 0.0000
 Depolar     --     0.0000                 0.0000                 0.0000
 Atom AN      X      Y      Z        X      Y      Z        X      Y      Z
   1   8    -0.00  -0.00   0.00    -0.00   0.00   0.00     0.00   0.00  -0.00
   2   6     0.00   0.00   0.00     0.00  -0.00   0.00     0.00  -0.00   0.00
   3   1    -0.00   0.00  -0.00    -0.00   0.00  -0.00    -0.00   0.00  -0.00
   4   1    -0.00  -0.00   0.00     0.00   0.00  -0.00    -0.00   0.00   0.00
   5   6     0.00  -0.00  -0.00    -0.00  -0.00   0.00     0.00  -0.00   0.00
   6   1    -0.00   0.00   0.00    -0.00  -0.00   0.00    -0.00   0.00   0.00
   7   1     0.00  -0.00   0.00     0.00   0.00   0.00     0.00   0.00  -0.00
   8   7    -0.00   0.00  -0.00     0.00  -0.00  -0.00    -0.00  -0.00   0.00
   9   6     0.00  -0.00  -0.00    -0.00  -0.00  -0.00     0.00  -0.00  -0.00
  10   1    -0.00   0.00  -0.00     0.00  -0.00  -0.00    -0.00   0.00   0.00
  11   1     0.00  -0.00   0.00     0.00   0.00   0.00    -0.00   0.00   0.00
  12   1    -0.00  -0.00   0.00    -0.00   0.00  -0.00    -0.00  -0.00   0.00
  13   6     0.00  -0.00   0.00    -0.00  -0.00   0.00    -0.00  -0.00  -0.00
  14   1    -0.00   0.00  -0.00     0.00  -0.00   0.00    -0.00   0.00   0.00
  15   1     0.00  -0.00   0.00     0.00   0.00  -0.00     0.00   0.00  -0.00
  16   1     0.00  -0.00   0.00    -0.00  -0.00   0.00    -0.00  -0.00   0.00
  17   6     0.00  -0.00  -0.00     0.00   0.00  -0.00     0.00  -0.00   0.00
  18   1    -0.00  -0.00  -0.00     0.00  -0.00   0.00    -0.00  -0.00  -0.00
  19   1     0.00   0.00   0.00     0.00   0.00  -0.00     0.00   0.00   0.00
  20   1    -0.00  -0.00   0.00    -0.00  -0.00   0.00     0.00  -0.00   0.00
  21   1     0.00   0.00  -0.00    -0.00  -0.00   0.00     0.00  -0.00   0.00
  22   6    -0.00   0.00  -0.00     0.00  -0.00   0.00    -0.00   0.00   0.00
  23   8     0.00  -0.00   0.00    -0.00   0.00  -0.00     0.00  -0.00  -0.00
  24   7     0.01   0.10   0.05     0.00  -0.00  -0.00    -0.00   0.00  -0.00
  25   1    -0.35  -0.11  -0.15     0.00   0.00   0.00     0.00   0.00   0.00
  26   1     0.34  -0.26  -0.03    -0.00   0.00   0.00     0.00  -0.00  -0.00
  27   7    -0.13  -0.03  -0.06     0.00   0.00   0.00     0.00  -0.00  -0.00
  28   1     0.42  -0.40   0.04    -0.00   0.00  -0.00    -0.00   0.00   0.00
  29   1     0.07   0.49   0.19    -0.00  -0.00  -0.00     0.00   0.00   0.00
  30   6     0.00   0.00   0.00     0.00   0.00   0.00     0.00  -0.00  -0.00
  31   8    -0.00  -0.00  -0.00    -0.00  -0.00  -0.00    -0.00   0.00   0.00
  32   7     0.00  -0.00  -0.00     0.00  -0.00  -0.00    -0.00   0.00   0.00
  33   1     0.00  -0.00   0.00    -0.00   0.00   0.00     0.00  -0.00   0.00
  34   1    -0.00   0.00   0.00    -0.00   0.00   0.00     0.00  -0.00  -0.00
  35   7    -0.00  -0.00  -0.00    -0.00   0.00   0.00     0.00  -0.00  -0.00
  36   1    -0.00   0.00   0.00     0.01  -0.01  -0.00    -0.00   0.00   0.00
  37   1     0.00   0.00   0.00     0.00   0.00   0.00     0.00   0.00  -0.00
  38   6    -0.00   0.00   0.00    -0.00   0.00  -0.01     0.00  -0.00  -0.00
  39   8     0.00  -0.00  -0.00     0.00  -0.00   0.00     0.00   0.00   0.00
  40   7     0.00   0.00  -0.00    -0.00   0.02   0.02    -0.00   0.00   0.00
  41   1    -0.00  -0.00  -0.00     0.01  -0.08  -0.02    -0.00   0.00   0.00
  42   1    -0.00   0.00   0.00     0.01  -0.01  -0.04     0.00  -0.00  -0.01
  43   7    -0.00  -0.00  -0.00    -0.05  -0.05  -0.25     0.00   0.00   0.01
  44   1     0.00   0.00   0.00     0.19   0.25   0.90    -0.01  -0.01  -0.03
  45   1    -0.00   0.00  -0.00    -0.01  -0.08   0.04     0.00   0.00   0.00
  46   6    -0.00   0.00  -0.00    -0.00  -0.00  -0.00    -0.01   0.00  -0.00
  47   8     0.00  -0.00   0.00     0.00   0.00   0.00     0.00  -0.00   0.00
  48   7    -0.00   0.00  -0.00     0.00   0.00   0.00     0.00   0.02   0.01
  49   1    -0.00  -0.00  -0.00     0.00  -0.00  -0.00    -0.00  -0.08  -0.02
  50   1     0.00   0.00   0.00    -0.01  -0.00  -0.01    -0.00  -0.00  -0.00
  51   7     0.00  -0.00   0.00    -0.01  -0.00  -0.01    -0.19  -0.07  -0.16
  52   1    -0.00  -0.00  -0.00     0.03   0.01   0.02     0.70   0.31   0.58
  53   1    -0.00   0.00  -0.00     0.00  -0.00   0.00     0.02  -0.06   0.03
                    148                    149                    150
                        a                      a                      a 
 Frequencies --  3537.8061              3554.4945              3564.7640
 Red. masses --     1.9377                 2.1734                 2.1899
 Frc consts  --     0.0000                 0.0000                 0.0000
 IR Inten    --    16.2913                 9.5600                12.0757
 Raman Activ --     0.0000                 0.0000                 0.0000
 Depolar     --     0.0000                 0.0000                 0.0000
 Atom AN      X      Y      Z        X      Y      Z        X      Y      Z
   1   8     0.00   0.00  -0.00    -0.00   0.00   0.00     0.00   0.00  -0.00
   2   6    -0.00  -0.00   0.00     0.00   0.00  -0.00    -0.00  -0.00   0.00
   3   1    -0.00   0.00   0.00     0.00   0.00   0.00     0.00  -0.00   0.00
   4   1     0.00   0.00  -0.00    -0.00  -0.00  -0.00     0.00   0.00  -0.00
   5   6    -0.00  -0.00   0.00    -0.00  -0.00   0.00    -0.00   0.00  -0.00
   6   1     0.00   0.00   0.00    -0.00   0.00   0.00     0.00  -0.00  -0.00
   7   1     0.00   0.00  -0.00     0.00   0.00  -0.00    -0.00   0.00  -0.00
   8   7     0.00   0.00  -0.00     0.00  -0.00  -0.00     0.00   0.00   0.00
   9   6     0.00  -0.00  -0.00     0.00  -0.00  -0.00     0.00  -0.00   0.00
  10   1    -0.00   0.00  -0.00    -0.00   0.00  -0.00    -0.00   0.00  -0.00
  11   1     0.00   0.00   0.00     0.00   0.00  -0.00     0.00  -0.00   0.00
  12   1    -0.00  -0.00   0.00    -0.00  -0.00   0.00     0.00  -0.00  -0.00
  13   6    -0.00  -0.00  -0.00     0.00  -0.00   0.00     0.00  -0.00   0.00
  14   1    -0.00   0.00  -0.00    -0.00   0.00  -0.00     0.00   0.00  -0.00
  15   1     0.00   0.00  -0.00     0.00   0.00  -0.00     0.00  -0.00  -0.00
  16   1     0.00   0.00   0.00     0.00   0.00   0.00    -0.00  -0.00   0.00
  17   6     0.00   0.00  -0.00     0.00   0.00  -0.00    -0.00   0.00  -0.00
  18   1    -0.00   0.00   0.00     0.00  -0.00   0.00     0.00  -0.00   0.00
  19   1     0.00  -0.00  -0.00     0.00   0.00  -0.00     0.00   0.00  -0.00
  20   1    -0.00  -0.00   0.00    -0.00  -0.00   0.00    -0.00  -0.00  -0.00
  21   1     0.00  -0.00   0.00     0.00   0.00  -0.00    -0.00  -0.00   0.00
  22   6    -0.00  -0.00  -0.00     0.00   0.00   0.00     0.01   0.01   0.00
  23   8     0.00   0.00   0.00     0.00  -0.00   0.00    -0.00  -0.00  -0.00
  24   7    -0.00   0.00   0.00     0.00  -0.00   0.00     0.24  -0.04   0.05
  25   1    -0.00  -0.00  -0.00    -0.00  -0.00  -0.00    -0.51  -0.17  -0.23
  26   1     0.00  -0.00  -0.00    -0.00   0.00   0.00    -0.39   0.32   0.04
  27   7    -0.00   0.00  -0.00    -0.00  -0.00  -0.00    -0.05   0.16   0.03
  28   1     0.00  -0.00   0.00    -0.00   0.00  -0.00     0.27  -0.24   0.03
  29   1     0.00   0.00   0.00     0.00   0.00   0.00    -0.07  -0.39  -0.15
  30   6     0.00   0.01   0.00     0.00  -0.00  -0.00    -0.00   0.00   0.00
  31   8     0.00  -0.00  -0.00    -0.00   0.00   0.00     0.00  -0.00  -0.00
  32   7     0.03  -0.01  -0.00    -0.00   0.00   0.00    -0.00   0.00   0.00
  33   1    -0.09   0.01  -0.00     0.00  -0.00   0.00     0.01  -0.00   0.00
  34   1    -0.01   0.02   0.01     0.00  -0.00  -0.00     0.00  -0.01  -0.00
  35   7    -0.08   0.25   0.05    -0.00  -0.00  -0.00     0.00   0.00   0.00
  36   1     0.40  -0.84  -0.18    -0.00   0.00   0.00     0.00  -0.00  -0.00
  37   1    -0.10  -0.10  -0.02     0.00   0.00   0.00     0.00   0.00   0.00
  38   6    -0.00   0.00   0.00     0.00  -0.01  -0.01    -0.00  -0.00  -0.00
  39   8     0.00  -0.00   0.00    -0.00   0.00   0.00     0.00   0.00   0.00
  40   7     0.00  -0.00  -0.00     0.04  -0.20  -0.22    -0.00   0.00   0.00
  41   1    -0.00   0.00   0.00    -0.05   0.63   0.17     0.00  -0.00  -0.00
  42   1    -0.00   0.00   0.00    -0.11   0.12   0.67     0.00  -0.00  -0.00
  43   7     0.00  -0.00   0.00    -0.00  -0.00  -0.02    -0.00   0.00  -0.00
  44   1    -0.00  -0.00  -0.01     0.02   0.02   0.08    -0.00   0.00   0.00
  45   1    -0.00   0.01  -0.00     0.00  -0.01   0.00     0.00  -0.00   0.00
  46   6     0.00   0.00   0.00    -0.00  -0.00  -0.00    -0.00  -0.00  -0.00
  47   8    -0.00  -0.00  -0.00     0.00  -0.00   0.00     0.00   0.00   0.00
  48   7    -0.00  -0.00  -0.00     0.00   0.00   0.00    -0.01  -0.01  -0.01
  49   1    -0.00   0.00   0.00     0.00  -0.01  -0.00    -0.00   0.04   0.01
  50   1     0.01   0.01   0.01    -0.00  -0.00  -0.00     0.03   0.01   0.02
  51   7    -0.00  -0.00  -0.00    -0.00   0.00  -0.00    -0.00  -0.00  -0.00
  52   1     0.00   0.00   0.00     0.00   0.00   0.00     0.00   0.00   0.00
  53   1    -0.00   0.00  -0.00     0.00  -0.00   0.00     0.00  -0.00   0.00
                    151                    152                    153
                        a                      a                      a 
 Frequencies --  3564.9613              3568.0937              3570.4921
 Red. masses --     2.1778                 2.1810                 2.1779
 Frc consts  --     0.0000                 0.0000                 0.0000
 IR Inten    --    14.4786                12.0099                11.6978
 Raman Activ --     0.0000                 0.0000                 0.0000
 Depolar     --     0.0000                 0.0000                 0.0000
 Atom AN      X      Y      Z        X      Y      Z        X      Y      Z
   1   8    -0.00  -0.00   0.00    -0.00  -0.00   0.00    -0.00   0.00   0.00
   2   6     0.00  -0.00   0.00    -0.00   0.00  -0.00    -0.00  -0.00  -0.00
   3   1    -0.00   0.00  -0.00     0.00   0.00  -0.00    -0.00  -0.00   0.00
   4   1    -0.00   0.00  -0.00    -0.00  -0.00   0.00     0.00   0.00  -0.00
   5   6     0.00  -0.00   0.00     0.00  -0.00  -0.00    -0.00   0.00   0.00
   6   1    -0.00   0.00   0.00    -0.00  -0.00   0.00     0.00  -0.00  -0.00
   7   1     0.00   0.00  -0.00    -0.00   0.00   0.00    -0.00   0.00  -0.00
   8   7    -0.00   0.00   0.00    -0.00   0.00   0.00     0.00  -0.00   0.00
   9   6    -0.00   0.00  -0.00     0.00  -0.00   0.00    -0.00   0.00  -0.00
  10   1     0.00  -0.00   0.00    -0.00   0.00   0.00     0.00  -0.00   0.00
  11   1    -0.00   0.00   0.00    -0.00  -0.00  -0.00    -0.00   0.00  -0.00
  12   1    -0.00  -0.00   0.00     0.00   0.00  -0.00    -0.00   0.00  -0.00
  13   6    -0.00  -0.00  -0.00     0.00   0.00   0.00    -0.00   0.00  -0.00
  14   1    -0.00   0.00   0.00    -0.00   0.00  -0.00     0.00  -0.00   0.00
  15   1     0.00   0.00  -0.00    -0.00   0.00   0.00    -0.00  -0.00  -0.00
  16   1    -0.00  -0.00   0.00    -0.00  -0.00  -0.00    -0.00   0.00   0.00
  17   6    -0.00  -0.00   0.00    -0.00  -0.00   0.00    -0.00   0.00   0.00
  18   1    -0.00  -0.00  -0.00    -0.00  -0.00  -0.00    -0.00   0.00   0.00
  19   1     0.00   0.00   0.00     0.00   0.00   0.00    -0.00  -0.00  -0.00
  20   1     0.00  -0.00  -0.00     0.00  -0.00  -0.00     0.00   0.00  -0.00
  21   1     0.00   0.00  -0.00     0.00   0.01  -0.00    -0.00  -0.00  -0.00
  22   6    -0.00  -0.00  -0.00     0.00  -0.00   0.00    -0.01   0.01   0.00
  23   8     0.00   0.00   0.00     0.00  -0.00  -0.00     0.00  -0.00  -0.00
  24   7    -0.01   0.00  -0.00     0.00  -0.00   0.00    -0.17   0.03  -0.03
  25   1     0.03   0.01   0.01    -0.01  -0.00  -0.00     0.36   0.12   0.16
  26   1     0.02  -0.02  -0.00    -0.01   0.01   0.00     0.29  -0.24  -0.03
  27   7     0.00  -0.01  -0.00     0.00  -0.00  -0.00    -0.08   0.23   0.04
  28   1    -0.02   0.01  -0.00    -0.00   0.00  -0.00     0.39  -0.34   0.05
  29   1     0.00   0.02   0.01     0.00   0.00   0.00    -0.10  -0.52  -0.21
  30   6    -0.00   0.00   0.00     0.01  -0.01  -0.00     0.00  -0.00  -0.00
  31   8     0.00  -0.00  -0.00    -0.00   0.00   0.00    -0.00   0.00   0.00
  32   7    -0.01   0.00   0.00     0.25  -0.16  -0.04     0.00  -0.00  -0.00
  33   1     0.02  -0.00   0.00    -0.70   0.04  -0.02    -0.01   0.00  -0.00
  34   1     0.01  -0.01  -0.00    -0.26   0.55   0.17    -0.00   0.01   0.00
  35   7    -0.00  -0.00  -0.00     0.01  -0.02  -0.00     0.00  -0.00  -0.00
  36   1    -0.00   0.01   0.00    -0.04   0.07   0.02    -0.00   0.00   0.00
  37   1     0.01   0.01   0.00     0.01   0.01   0.00     0.00   0.00  -0.00
  38   6     0.00  -0.00  -0.00     0.00  -0.00  -0.00     0.00  -0.00  -0.00
  39   8     0.00   0.00   0.00    -0.00   0.00   0.00    -0.00  -0.00   0.00
  40   7     0.00  -0.00  -0.00     0.00  -0.00  -0.00     0.00  -0.00  -0.00
  41   1    -0.00   0.00   0.00    -0.00   0.00   0.00    -0.00   0.00   0.00
  42   1    -0.00   0.00   0.01    -0.00   0.00   0.00    -0.00   0.00   0.00
  43   7    -0.00   0.00  -0.00    -0.00   0.00  -0.00    -0.00   0.00  -0.00
  44   1     0.00   0.00   0.01     0.00   0.00   0.00     0.00   0.00   0.00
  45   1     0.00  -0.01   0.01     0.00  -0.00   0.00     0.00  -0.00   0.00
  46   6    -0.00  -0.01  -0.01    -0.00  -0.00  -0.00     0.00  -0.00  -0.00
  47   8     0.00   0.00   0.00     0.00   0.00   0.00    -0.00   0.00   0.00
  48   7    -0.12  -0.23  -0.15    -0.00  -0.01  -0.00    -0.00  -0.00  -0.00
  49   1    -0.01   0.69   0.19    -0.00   0.02   0.01    -0.00   0.00   0.00
  50   1     0.46   0.19   0.39     0.01   0.00   0.01     0.00   0.00   0.00
  51   7    -0.01  -0.00  -0.01    -0.00   0.00  -0.00    -0.00   0.00   0.00
  52   1     0.05   0.02   0.04     0.00   0.00   0.00    -0.00  -0.00  -0.00
  53   1     0.00  -0.01   0.00     0.00  -0.00   0.00     0.00  -0.00   0.00
