      -----------------------------------------------------------      
     |                   =====================                   |     
     |                           x T B                           |     
     |                   =====================                   |     
     |                         S. Grimme                         |     
     |          Mulliken Center for Theoretical Chemistry        |     
     |                    University of Bonn                     |     
      -----------------------------------------------------------      

   * xtb version 6.6.1 (unknown-commit) compiled by '@Linux' on 12/27/2023

   xtb is free software: you can redistribute it and/or modify it under
   the terms of the GNU Lesser General Public License as published by
   the Free Software Foundation, either version 3 of the License, or
   (at your option) any later version.
   
   xtb is distributed in the hope that it will be useful,
   but WITHOUT ANY WARRANTY; without even the implied warranty of
   MERCHANTABILITY or FITNESS FOR A PARTICULAR PURPOSE.  See the
   GNU Lesser General Public License for more details.
   
   Cite this work as:
   * C. Bannwarth, E. Caldeweyher, S. Ehlert, A. Hansen, P. Pracht,
     J. Seibert, S. Spicher, S. Grimme, WIREs Comput. Mol. Sci., 2020, 11,
     e01493. DOI: 10.1002/wcms.1493
   
   for GFN2-xTB:
   * C. Bannwarth, S. Ehlert and S. Grimme., J. Chem. Theory Comput., 2019,
     15, 1652-1671. DOI: 10.1021/acs.jctc.8b01176
   for GFN1-xTB:
   * S. Grimme, C. Bannwarth, P. Shushkov, J. Chem. Theory Comput., 2017,
     13, 1989-2009. DOI: 10.1021/acs.jctc.7b00118
   for GFN0-xTB:
   * P. Pracht, E. Caldeweyher, S. Ehlert, S. Grimme, ChemRxiv, 2019, preprint.
     DOI: 10.26434/chemrxiv.8326202.v1
   for GFN-FF:
   * S. Spicher and S. Grimme, Angew. Chem. Int. Ed., 2020, 59, 15665-15673.
     DOI: 10.1002/anie.202004239
   
   for ALPB and GBSA implicit solvation:
   * S. Ehlert, M. Stahn, S. Spicher, S. Grimme, J. Chem. Theory Comput.,
     2021, 17, 4250-4261. DOI: 10.1021/acs.jctc.1c00471
   
   for DFT-D4:
   * E. Caldeweyher, C. Bannwarth and S. Grimme, J. Chem. Phys., 2017,
     147, 034112. DOI: 10.1063/1.4993215
   * E. Caldeweyher, S. Ehlert, A. Hansen, H. Neugebauer, S. Spicher,
     C. Bannwarth and S. Grimme, J. Chem. Phys., 2019, 150, 154122.
     DOI: 10.1063/1.5090222
   * E. Caldeweyher, J.-M. Mewes, S. Ehlert and S. Grimme, Phys. Chem. Chem. Phys.
     2020, 22, 8499-8512. DOI: 10.1039/D0CP00502A
   
   for sTDA-xTB:
   * S. Grimme and C. Bannwarth, J. Chem. Phys., 2016, 145, 054103.
     DOI: 10.1063/1.4959605
   
   in the mass-spec context:
   * V. Asgeirsson, C. Bauer and S. Grimme, Chem. Sci., 2017, 8, 4879.
     DOI: 10.1039/c7sc00601b
   * J. Koopman and S. Grimme, ACS Omega 2019, 4, 12, 15120-15133.
     DOI: 10.1021/acsomega.9b02011
   
   for metadynamics refer to:
   * S. Grimme, J. Chem. Theory Comput., 2019, 155, 2847-2862
     DOI: 10.1021/acs.jctc.9b00143
   
   for SPH calculations refer to:
   * S. Spicher and S. Grimme, J. Chem. Theory Comput., 2021, 17, 1701-1714
     DOI: 10.1021/acs.jctc.0c01306
   
   with help from (in alphabetical order)
   P. Atkinson, C. Bannwarth, F. Bohle, G. Brandenburg, E. Caldeweyher
   M. Checinski, S. Dohm, S. Ehlert, S. Ehrlich, I. Gerasimov, C. Hölzer
   A. Katbashev, J. Koopman, C. Lavigne, S. Lehtola, F. März, M. Müller,
   F. Musil, H. Neugebauer, J. Pisarek, C. Plett, P. Pracht, F. Pultar,
   J. Seibert, P. Shushkov, S. Spicher, M. Stahn, M. Steiner, T. Strunk,
   J. Stückrath, T. Rose, and J. Unsleber
   
 * started run on 2024/01/10 at 18:31:44.845     

           -------------------------------------------------
          |                Calculation Setup                |
           -------------------------------------------------

          program call               : xtb struc.xyz --gfn2 --hess
          hostname                   : swaroop
          coordinate file            : struc.xyz
          omp threads                :                     1

   ID    Z sym.   atoms
    1    8 O      1, 23, 31, 39, 47
    2    6 C      2, 5, 9, 13, 17, 22, 30, 38, 46
    3    1 H      3, 4, 6, 7, 10-12, 14-16, 18-21, 25, 26, 28, 29, 33, 34,
                  36, 37, 41, 42, 44, 45, 49, 50, 52, 53
    4    7 N      8, 24, 27, 32, 35, 40, 43, 48, 51

molecular fragmentation (1/2 indicates fragments):
11111111111111111111122222222222222222222222222222222
# atoms in fragment 1/2:    21    32
 fragment masses (1/2) :      104.17      240.22
CMA distance (Bohr)    :   2.441
constraining FC (au)   :  0.0500

           -------------------------------------------------
          |                 G F N 2 - x T B                 |
           -------------------------------------------------

        Reference                      10.1021/acs.jctc.8b01176
      * Hamiltonian:
        H0-scaling (s, p, d)           1.850000    2.230000    2.230000
        zeta-weighting                 0.500000
      * Dispersion:
        s8                             2.700000
        a1                             0.520000
        a2                             5.000000
        s9                             5.000000
      * Repulsion:
        kExp                           1.500000    1.000000
        rExp                           1.000000
      * Coulomb:
        alpha                          2.000000
        third order                    shell-resolved
        anisotropic                    true
        a3                             3.000000
        a5                             4.000000
        cn-shift                       1.200000
        cn-exp                         4.000000
        max-rad                        5.000000


          ...................................................
          :                      SETUP                      :
          :.................................................:
          :  # basis functions                 122          :
          :  # atomic orbitals                 122          :
          :  # shells                           76          :
          :  # electrons                       140          :
          :  max. iterations                   250          :
          :  Hamiltonian                  GFN2-xTB          :
          :  restarted?                      false          :
          :  GBSA solvation                  false          :
          :  PC potential                    false          :
          :  electronic temp.          300.0000000     K    :
          :  accuracy                    1.0000000          :
          :  -> integral cutoff          0.2500000E+02      :
          :  -> integral neglect         0.1000000E-07      :
          :  -> SCF convergence          0.1000000E-05 Eh   :
          :  -> wf. convergence          0.1000000E-03 e    :
          :  Broyden damping             0.4000000          :
          ...................................................

 iter      E             dE          RMSdq      gap      omega  full diag
   1    -81.5500086 -0.815500E+02  0.437E+00    5.11       0.0  T
   2    -81.8395488 -0.289540E+00  0.239E+00    5.97       1.0  T
   3    -81.8451914 -0.564258E-02  0.116E+00    5.71       1.0  T
   4    -81.8465667 -0.137524E-02  0.243E-01    5.79       1.0  T
   5    -81.8474803 -0.913642E-03  0.929E-02    5.71       1.0  T
   6    -81.8475053 -0.250257E-04  0.266E-02    5.72       1.0  T
   7    -81.8475099 -0.459987E-05  0.762E-03    5.72       1.8  T
   8    -81.8475102 -0.265673E-06  0.257E-03    5.71       5.3  T
   9    -81.8475102 -0.130366E-07  0.844E-04    5.71      16.3  T
  10    -81.8475102 -0.623831E-08  0.170E-04    5.71      80.6  T

   *** convergence criteria satisfied after 10 iterations ***

         #    Occupation            Energy/Eh            Energy/eV
      -------------------------------------------------------------
         1        2.0000           -0.7913943             -21.5349
       ...           ...                  ...                  ...
        64        2.0000           -0.4913734             -13.3709
        65        2.0000           -0.4885757             -13.2948
        66        2.0000           -0.4878107             -13.2740
        67        2.0000           -0.4869253             -13.2499
        68        2.0000           -0.4850246             -13.1982
        69        2.0000           -0.4820323             -13.1168
        70        2.0000           -0.4789681             -13.0334 (HOMO)
        71                         -0.2689825              -7.3194 (LUMO)
        72                         -0.2622554              -7.1363
        73                         -0.2578479              -7.0164
        74                         -0.2570582              -6.9949
        75                         -0.1468074              -3.9948
       ...                                ...                  ...
       122                          0.5672305              15.4351
      -------------------------------------------------------------
                  HL-Gap            0.2099856 Eh            5.7140 eV
             Fermi-level           -0.3739753 Eh          -10.1764 eV

 SCC (total)                   0 d,  0 h,  0 min,  0.083 sec
 SCC setup                      ...        0 min,  0.000 sec (  0.346%)
 Dispersion                     ...        0 min,  0.001 sec (  0.708%)
 classical contributions        ...        0 min,  0.000 sec (  0.218%)
 integral evaluation            ...        0 min,  0.008 sec (  9.570%)
 iterations                     ...        0 min,  0.045 sec ( 54.800%)
 molecular gradient             ...        0 min,  0.028 sec ( 34.027%)
 printout                       ...        0 min,  0.000 sec (  0.314%)

         :::::::::::::::::::::::::::::::::::::::::::::::::::::
         ::                     SUMMARY                     ::
         :::::::::::::::::::::::::::::::::::::::::::::::::::::
         :: total energy             -80.932501070165 Eh    ::
         :: gradient norm              0.000140134975 Eh/a0 ::
         :: HOMO-LUMO gap              5.713999489860 eV    ::
         ::.................................................::
         :: SCC energy               -81.847510207107 Eh    ::
         :: -> isotropic ES            0.291533409776 Eh    ::
         :: -> anisotropic ES         -0.026750571781 Eh    ::
         :: -> anisotropic XC          0.020465314718 Eh    ::
         :: -> dispersion             -0.044299980434 Eh    ::
         :: repulsion energy           0.913655428791 Eh    ::
         :: add. restraining           0.000000000000 Eh    ::
         :: total charge               1.000000000000 e     ::
         :::::::::::::::::::::::::::::::::::::::::::::::::::::

           ------------------------------------------------- 
          |                Numerical Hessian                |
           ------------------------------------------------- 
step length          :   0.00500
SCC accuracy         :   0.30000
Hessian scale factor :   1.00000
frozen atoms in %    :   0.00000    0
RMS gradient         :   0.00014
estimated CPU  time      0.24 min
estimated wall time      0.24 min

writing file <hessian>.

 projected vibrational frequencies (cm⁻¹)
eigval :       -0.00    -0.00    -0.00    -0.00    -0.00     0.00
eigval :       -4.25    16.35    18.20    25.56    35.85    36.75
eigval :       40.64    48.02    52.45    59.38    62.28    71.46
eigval :       76.11    86.49    88.27    95.06   103.57   108.81
eigval :      109.72   123.22   127.60   150.85   159.10   167.28
eigval :      185.35   194.01   202.71   227.31   255.14   264.92
eigval :      285.41   312.86   318.01   323.24   346.12   371.44
eigval :      378.91   390.41   437.11   443.06   445.10   456.29
eigval :      459.41   462.50   462.85   469.63   471.17   475.33
eigval :      481.52   487.93   500.51   505.38   529.63   541.81
eigval :      554.97   561.45   567.25   657.56   669.46   671.60
eigval :      674.40   689.35   713.38   735.67   764.92   798.99
eigval :      915.07   926.67   945.16   956.58   969.33   982.19
eigval :      995.10  1002.68  1005.50  1013.65  1017.50  1023.81
eigval :     1027.06  1037.16  1041.15  1080.72  1083.11  1092.16
eigval :     1095.93  1102.39  1110.23  1134.37  1168.68  1232.43
eigval :     1247.68  1272.73  1319.81  1328.79  1352.48  1353.98
eigval :     1360.39  1361.44  1380.53  1385.56  1405.41  1413.35
eigval :     1419.24  1439.57  1442.67  1445.86  1452.29  1455.77
eigval :     1457.35  1462.59  1464.35  1467.48  1473.55  1478.64
eigval :     1490.37  1497.96  1506.91  1507.90  1513.32  1668.10
eigval :     1691.67  1706.77  1723.50  2856.31  2978.78  2994.06
eigval :     3000.40  3031.48  3038.41  3040.45  3044.40  3046.54
eigval :     3048.86  3051.68  3054.50  3064.01  3129.47  3215.85
eigval :     3258.47  3343.96  3490.09  3499.24  3500.33  3501.54
eigval :     3504.77  3524.94  3529.26  3537.81  3554.49  3564.76
eigval :     3564.96  3568.09  3570.49
           -------------------------------------------------
          |                Property Printout                |
           -------------------------------------------------

    * Orbital Energies and Occupations

         #    Occupation            Energy/Eh            Energy/eV
      -------------------------------------------------------------
         1        2.0000           -0.7913935             -21.5349
       ...           ...                  ...                  ...
        58        2.0000           -0.5066777             -13.7874
        59        2.0000           -0.5034562             -13.6997
        60        2.0000           -0.4991396             -13.5823
        61        2.0000           -0.4981951             -13.5566
        62        2.0000           -0.4960163             -13.4973
        63        2.0000           -0.4944218             -13.4539
        64        2.0000           -0.4913736             -13.3710
        65        2.0000           -0.4885764             -13.2948
        66        2.0000           -0.4878108             -13.2740
        67        2.0000           -0.4869260             -13.2499
        68        2.0000           -0.4850243             -13.1982
        69        2.0000           -0.4820322             -13.1168
        70        2.0000           -0.4789682             -13.0334 (HOMO)
        71                         -0.2689846              -7.3194 (LUMO)
        72                         -0.2622549              -7.1363
        73                         -0.2578484              -7.0164
        74                         -0.2570596              -6.9949
        75                         -0.1468066              -3.9948
        76                         -0.0991428              -2.6978
        77                         -0.0922453              -2.5101
        78                         -0.0809284              -2.2022
        79                         -0.0779999              -2.1225
        80                         -0.0682203              -1.8564
        81                         -0.0610303              -1.6607
       ...                                ...                  ...
       122                          0.5672307              15.4351
      -------------------------------------------------------------
                  HL-Gap            0.2099836 Eh            5.7139 eV
             Fermi-level           -0.3739764 Eh          -10.1764 eV

     #   Z          covCN         q      C6AA      α(0)
     1   8 O        1.654    -0.469    22.239     6.366
     2   6 C        3.673     0.075    19.552     6.337
     3   1 H        0.923     0.040     2.444     2.445
     4   1 H        0.924     0.057     2.229     2.335
     5   6 C        3.769    -0.069    21.863     6.664
     6   1 H        0.924     0.107     1.721     2.051
     7   1 H        0.924     0.105     1.742     2.064
     8   7 N        3.623     0.157    18.589     6.403
     9   6 C        3.724    -0.116    22.844     6.825
    10   1 H        0.925     0.110     1.701     2.039
    11   1 H        0.925     0.082     1.962     2.190
    12   1 H        0.925     0.125     1.576     1.963
    13   6 C        3.736    -0.105    22.602     6.785
    14   1 H        0.925     0.119     1.620     1.990
    15   1 H        0.925     0.088     1.903     2.157
    16   1 H        0.925     0.083     1.951     2.184
    17   6 C        3.722    -0.113    22.788     6.817
    18   1 H        0.925     0.074     2.039     2.233
    19   1 H        0.925     0.108     1.710     2.045
    20   1 H        0.925     0.135     1.496     1.913
    21   1 H        0.803     0.333     0.629     1.246
    22   6 C        2.675     0.346    21.128     7.522
    23   8 O        0.860    -0.524    24.312     6.611
    24   7 N        2.646    -0.289    27.448     7.781
    25   1 H        0.860     0.200     1.107     1.648
    26   1 H        0.861     0.187     1.177     1.699
    27   7 N        2.646    -0.289    27.446     7.781
    28   1 H        0.861     0.187     1.175     1.698
    29   1 H        0.860     0.199     1.109     1.650
    30   6 C        2.675     0.342    21.194     7.533
    31   8 O        0.860    -0.537    24.615     6.652
    32   7 N        2.646    -0.291    27.497     7.788
    33   1 H        0.860     0.199     1.113     1.653
    34   1 H        0.861     0.182     1.203     1.718
    35   7 N        2.645    -0.299    27.697     7.816
    36   1 H        0.861     0.178     1.226     1.734
    37   1 H        0.860     0.244     0.908     1.493
    38   6 C        2.675     0.347    21.100     7.517
    39   8 O        0.860    -0.526    24.373     6.619
    40   7 N        2.644    -0.294    27.572     7.799
    41   1 H        0.860     0.194     1.139     1.672
    42   1 H        0.860     0.183     1.199     1.715
    43   7 N        2.643    -0.300    27.731     7.821
    44   1 H        0.860     0.182     1.201     1.717
    45   1 H        0.860     0.240     0.921     1.504
    46   6 C        2.675     0.340    21.223     7.538
    47   8 O        0.860    -0.526    24.360     6.617
    48   7 N        2.644    -0.293    27.560     7.797
    49   1 H        0.860     0.197     1.123     1.660
    50   1 H        0.861     0.182     1.201     1.717
    51   7 N        2.643    -0.312    28.023     7.862
    52   1 H        0.861     0.176     1.239     1.743
    53   1 H        0.859     0.249     0.887     1.475

 Mol. C6AA /au·bohr⁶  :      21800.704928
 Mol. C8AA /au·bohr⁸  :     454254.334055
 Mol. α(0) /au        :        220.602579


Wiberg/Mayer (AO) data.
largest (>0.10) Wiberg bond orders for each atom

 ---------------------------------------------------------------------------
     #   Z sym  total        # sym  WBO       # sym  WBO       # sym  WBO
 ---------------------------------------------------------------------------
     1   8 O    1.946 --     2 C    1.023    21 H    0.824
     2   6 C    3.967 --     1 O    1.023     5 C    0.997     4 H    0.965
                             3 H    0.959
     3   1 H    0.998 --     2 C    0.959
     4   1 H    0.996 --     2 C    0.965
     5   6 C    3.929 --     2 C    0.997     7 H    0.959     6 H    0.955
                             8 N    0.932
     6   1 H    0.988 --     5 C    0.955
     7   1 H    0.989 --     5 C    0.959
     8   7 N    3.822 --    13 C    0.961     9 C    0.956    17 C    0.955
                             5 C    0.932
     9   6 C    3.919 --    11 H    0.978    10 H    0.968    12 H    0.956
                             8 N    0.956
    10   1 H    0.988 --     9 C    0.968
    11   1 H    0.993 --     9 C    0.978
    12   1 H    0.984 --     9 C    0.956
    13   6 C    3.933 --    15 H    0.978    16 H    0.977    14 H    0.964
                             8 N    0.961
    14   1 H    0.986 --    13 C    0.964
    15   1 H    0.992 --    13 C    0.978
    16   1 H    0.993 --    13 C    0.977
    17   6 C    3.915 --    18 H    0.979    19 H    0.965    20 H    0.955
                             8 N    0.955
    18   1 H    0.994 --    17 C    0.979
    19   1 H    0.988 --    17 C    0.965
    20   1 H    0.982 --    17 C    0.955
    21   1 H    0.889 --     1 O    0.824
    22   6 C    3.959 --    23 O    1.536    27 N    1.209    24 N    1.208
    23   8 O    1.893 --    22 C    1.536    27 N    0.144    24 N    0.143
    24   7 N    3.323 --    22 C    1.208    26 H    0.946    25 H    0.943
                            23 O    0.143
    25   1 H    0.960 --    24 N    0.943
    26   1 H    0.965 --    24 N    0.946
    27   7 N    3.325 --    22 C    1.209    28 H    0.946    29 H    0.943
                            23 O    0.144
    28   1 H    0.965 --    27 N    0.946
    29   1 H    0.960 --    27 N    0.943
    30   6 C    3.959 --    31 O    1.493    35 N    1.253    32 N    1.203
    31   8 O    1.885 --    30 C    1.493    35 N    0.146    32 N    0.131
    32   7 N    3.318 --    30 C    1.203    34 H    0.948    33 H    0.944
                            31 O    0.131
    33   1 H    0.960 --    32 N    0.944
    34   1 H    0.967 --    32 N    0.948
    35   7 N    3.349 --    30 C    1.253    36 H    0.949    37 H    0.889
                            31 O    0.146
    36   1 H    0.968 --    35 N    0.949
    37   1 H    0.941 --    35 N    0.889
    38   6 C    3.958 --    39 O    1.495    43 N    1.254    40 N    1.197
    39   8 O    1.914 --    38 C    1.495    43 N    0.141    40 N    0.128
    40   7 N    3.307 --    38 C    1.197    42 H    0.948    41 H    0.945
                            39 O    0.128
    41   1 H    0.962 --    40 N    0.945
    42   1 H    0.966 --    40 N    0.948
    43   7 N    3.333 --    38 C    1.254    44 H    0.946    45 H    0.877
                            39 O    0.141
    44   1 H    0.967 --    43 N    0.946
    45   1 H    0.942 --    43 N    0.877
    46   6 C    3.960 --    47 O    1.490    51 N    1.258    48 N    1.200
    47   8 O    1.916 --    46 C    1.490    51 N    0.144    48 N    0.131
    48   7 N    3.315 --    46 C    1.200    50 H    0.948    49 H    0.944
                            47 O    0.131
    49   1 H    0.961 --    48 N    0.944
    50   1 H    0.966 --    48 N    0.948
    51   7 N    3.336 --    46 C    1.258    52 H    0.949    53 H    0.859
                            47 O    0.144
    52   1 H    0.969 --    51 N    0.949
    53   1 H    0.938 --    51 N    0.859
 ---------------------------------------------------------------------------

Topologies differ in total number of bonds
Writing topology from bond orders to xtbtopo.mol

molecular dipole:
                 x           y           z       tot (Debye)
 q only:        1.061      -0.606      -1.173
   full:        1.064      -0.455      -1.005       3.896
molecular quadrupole (traceless):
                xx          xy          yy          xz          yz          zz
 q only:       15.658     -38.097      15.032      -4.945       7.647     -30.689
  q+dip:       19.597     -43.846      19.241      -3.339       9.585     -38.838
   full:       19.634     -44.052      18.680      -3.996       9.470     -38.314

           -------------------------------------------------
          |               Frequency Printout                |
           -------------------------------------------------
 projected vibrational frequencies (cm⁻¹)
eigval :       -0.00    -0.00    -0.00    -0.00    -0.00     0.00
eigval :       -4.25    16.35    18.20    25.56    35.85    36.75
eigval :       40.64    48.02    52.45    59.38    62.28    71.46
eigval :       76.11    86.49    88.27    95.06   103.57   108.81
eigval :      109.72   123.22   127.60   150.85   159.10   167.28
eigval :      185.35   194.01   202.71   227.31   255.14   264.92
eigval :      285.41   312.86   318.01   323.24   346.12   371.44
eigval :      378.91   390.41   437.11   443.06   445.10   456.29
eigval :      459.41   462.50   462.85   469.63   471.17   475.33
eigval :      481.52   487.93   500.51   505.38   529.63   541.81
eigval :      554.97   561.45   567.25   657.56   669.46   671.60
eigval :      674.40   689.35   713.38   735.67   764.92   798.99
eigval :      915.07   926.67   945.16   956.58   969.33   982.19
eigval :      995.10  1002.68  1005.50  1013.65  1017.50  1023.81
eigval :     1027.06  1037.16  1041.15  1080.72  1083.11  1092.16
eigval :     1095.93  1102.39  1110.23  1134.37  1168.68  1232.43
eigval :     1247.68  1272.73  1319.81  1328.79  1352.48  1353.98
eigval :     1360.39  1361.44  1380.53  1385.56  1405.41  1413.35
eigval :     1419.24  1439.57  1442.67  1445.86  1452.29  1455.77
eigval :     1457.35  1462.59  1464.35  1467.48  1473.55  1478.64
eigval :     1490.37  1497.96  1506.91  1507.90  1513.32  1668.10
eigval :     1691.67  1706.77  1723.50  2856.31  2978.78  2994.06
eigval :     3000.40  3031.48  3038.41  3040.45  3044.40  3046.54
eigval :     3048.86  3051.68  3054.50  3064.01  3129.47  3215.85
eigval :     3258.47  3343.96  3490.09  3499.24  3500.33  3501.54
eigval :     3504.77  3524.94  3529.26  3537.81  3554.49  3564.76
eigval :     3564.96  3568.09  3570.49
 reduced masses (amu)
   1: 12.61   2: 12.41   3: 12.65   4: 12.55   5: 12.57   6: 12.74   7: 11.20   8: 12.22
   9: 11.99  10: 11.75  11: 12.67  12: 12.48  13: 12.32  14: 12.60  15: 12.56  16: 12.84
  17: 12.31  18: 12.34  19: 13.16  20: 13.21  21: 13.34  22: 11.40  23: 12.13  24: 12.20
  25: 12.17  26: 11.38  27: 12.68  28: 12.56  29:  3.63  30: 13.43  31: 11.70  32: 12.12
  33: 11.42  34:  2.63  35:  4.58  36:  2.60  37:  6.25  38:  1.71  39:  6.64  40:  4.48
  41:  4.24  42:  6.90  43:  4.13  44:  3.21  45:  3.05  46:  8.47  47:  1.92  48:  8.36
  49:  5.95  50:  7.80  51:  3.85  52:  3.44  53:  3.79  54:  6.90  55:  7.67  56:  6.71
  57:  5.45  58:  3.31  59:  9.56  60: 11.45  61: 11.34  62: 11.53  63:  8.42  64:  7.20
  65: 10.47  66: 11.33  67: 11.94  68:  5.75  69:  3.46  70:  2.80  71:  9.29  72:  2.51
  73:  6.99  74:  8.36  75:  5.27  76:  4.97  77:  4.93  78:  4.90  79:  8.73  80:  7.47
  81:  8.65  82:  7.71  83:  9.77  84:  9.54  85:  6.39  86:  4.55  87:  5.06  88:  9.78
  89:  9.59  90:  8.03  91:  6.24  92:  7.47  93:  4.12  94:  9.41  95:  2.96  96:  5.91
  97:  6.95  98:  8.25  99:  4.72 100:  4.06 101:  5.85 102:  5.47 103:  4.78 104:  4.29
 105:  4.55 106:  4.51 107:  2.55 108:  2.63 109:  2.11 110:  2.35 111:  1.68 112:  1.94
 113:  2.89 114:  3.02 115:  2.58 116:  2.30 117:  3.18 118:  1.72 119:  1.65 120:  1.66
 121:  1.81 122:  8.28 123:  8.54 124:  8.95 125:  8.45 126: 12.40 127: 12.69 128: 12.67
 129: 12.84 130:  1.75 131:  1.66 132:  1.52 133:  2.01 134:  1.75 135:  1.61 136:  1.87
 137:  1.63 138:  1.66 139:  1.80 140:  1.69 141:  1.91 142:  1.67 143:  1.83 144:  1.90
 145:  1.78 146:  1.73 147:  1.45 148:  1.45 149:  1.44 150:  1.45 151:  1.46 152:  1.90
 153:  1.89 154:  1.94 155:  2.17 156:  2.19 157:  2.18 158:  2.18 159:  2.18
 IR intensities (km·mol⁻¹)
   1:  1.00   2:  2.05   3:  2.69   4:  1.55   5:  1.00   6:  0.72   7:  0.03   8:  0.43
   9:  1.23  10:  2.46  11:  1.28  12:  0.41  13:  1.48  14:  1.32  15:  7.42  16:  0.93
  17:  1.13  18:  1.09  19:  3.44  20:  2.51  21:  5.78  22:  3.57  23:  0.36  24: 19.74
  25: 23.35  26:  3.56  27: 18.80  28:  9.36  29:  9.08  30: 11.66  31: 13.83  32: 72.55
  33:  2.31  34:103.90  35:  1.18  36: 94.97  37:  0.71  38:  1.84  39: 68.60  40:466.01
  41:  3.23  42: 30.66  43:140.29  44:276.14  45:232.33  46: 10.82  47:  9.61  48: 13.50
  49: 80.66  50:  6.90  51:109.04  52:  1.76  53:  6.00  54:  9.23  55: 22.47  56: 22.16
  57: 49.11  58: 38.76  59: 31.83  60: 26.36  61:  3.68  62: 38.24  63: 15.94  64: 18.69
  65: 31.30  66:  8.54  67: 31.47  68: 69.72  69:320.16  70:163.34  71:  1.22  72:462.38
  73:  3.44  74:  9.39  75:  1.99  76:  0.98  77:  4.42  78:  2.71  79:  0.12  80: 17.63
  81: 19.29  82: 31.98  83:  7.89  84:  0.69  85:  9.13  86: 11.52  87:  5.41  88:  1.57
  89:  0.75  90:  1.06  91: 17.79  92:  0.06  93: 18.13  94: 43.09  95:  9.20  96:  6.45
  97:  4.11  98:  1.15  99:  0.42 100:  5.47 101: 97.44 102:186.67 103:122.37 104: 13.84
 105: 48.21 106: 44.53 107: 19.04 108: 13.59 109:  8.71 110: 12.85 111:  1.10 112:  6.40
 113: 16.99 114: 12.02 115:  2.69 116:  4.76 117: 14.05 118: 17.75 119:  2.47 120: 21.78
 121: 11.82 122:419.84 123:960.99 124:239.76 125:396.50 126:328.68 127:846.71 128:******
 129:634.97 130: 49.69 131: 23.32 132: 12.15 133:  8.36 134: 31.33 135: 15.40 136:  2.43
 137:  6.22 138: 20.56 139:  7.38 140:  8.65 141: 13.02 142: 40.20 143:672.64 144:401.87
 145:****** 146:670.03 147: 15.37 148: 16.09 149: 37.08 150: 18.68 151:  9.52 152: 15.05
 153: 10.85 154: 16.29 155:  9.56 156: 12.08 157: 14.48 158: 12.01 159: 11.70
 Raman intensities (amu)
Molecule has no symmetry elements
It seems to be the C1 point group
   1:  0.00   2:  0.00   3:  0.00   4:  0.00   5:  0.00   6:  0.00   7:  0.00   8:  0.00
   9:  0.00  10:  0.00  11:  0.00  12:  0.00  13:  0.00  14:  0.00  15:  0.00  16:  0.00
  17:  0.00  18:  0.00  19:  0.00  20:  0.00  21:  0.00  22:  0.00  23:  0.00  24:  0.00
  25:  0.00  26:  0.00  27:  0.00  28:  0.00  29:  0.00  30:  0.00  31:  0.00  32:  0.00
  33:  0.00  34:  0.00  35:  0.00  36:  0.00  37:  0.00  38:  0.00  39:  0.00  40:  0.00
  41:  0.00  42:  0.00  43:  0.00  44:  0.00  45:  0.00  46:  0.00  47:  0.00  48:  0.00
  49:  0.00  50:  0.00  51:  0.00  52:  0.00  53:  0.00  54:  0.00  55:  0.00  56:  0.00
  57:  0.00  58:  0.00  59:  0.00  60:  0.00  61:  0.00  62:  0.00  63:  0.00  64:  0.00
  65:  0.00  66:  0.00  67:  0.00  68:  0.00  69:  0.00  70:  0.00  71:  0.00  72:  0.00
  73:  0.00  74:  0.00  75:  0.00  76:  0.00  77:  0.00  78:  0.00  79:  0.00  80:  0.00
  81:  0.00  82:  0.00  83:  0.00  84:  0.00  85:  0.00  86:  0.00  87:  0.00  88:  0.00
  89:  0.00  90:  0.00  91:  0.00  92:  0.00  93:  0.00  94:  0.00  95:  0.00  96:  0.00
  97:  0.00  98:  0.00  99:  0.00 100:  0.00 101:  0.00 102:  0.00 103:  0.00 104:  0.00
 105:  0.00 106:  0.00 107:  0.00 108:  0.00 109:  0.00 110:  0.00 111:  0.00 112:  0.00
 113:  0.00 114:  0.00 115:  0.00 116:  0.00 117:  0.00 118:  0.00 119:  0.00 120:  0.00
 121:  0.00 122:  0.00 123:  0.00 124:  0.00 125:  0.00 126:  0.00 127:  0.00 128:  0.00
 129:  0.00 130:  0.00 131:  0.00 132:  0.00 133:  0.00 134:  0.00 135:  0.00 136:  0.00
 137:  0.00 138:  0.00 139:  0.00 140:  0.00 141:  0.00 142:  0.00 143:  0.00 144:  0.00
 145:  0.00 146:  0.00 147:  0.00 148:  0.00 149:  0.00 150:  0.00 151:  0.00 152:  0.00
 153:  0.00 154:  0.00 155:  0.00 156:  0.00 157:  0.00 158:  0.00 159:  0.00
 output can be read by thermo (or use thermo option).
 writing <g98.out> molden fake output.
 recommended (thermochemical) frequency scaling factor: 1.0
           -------------------------------------------------
          |             Thermodynamic Functions             |
           -------------------------------------------------

c1  symmetry found (for desy threshold:  0.10E+00) used in thermo
 inverting freq            1   4.2534766517919609     

          ...................................................
          :                      SETUP                      :
          :.................................................:
          :  # frequencies                         153      :
          :  # imaginary freq.                       0      :
          :  linear?                             false      :
          :  only rotor calc.                    false      :
          :  symmetry                               c1      :
          :  rotational number                       1      :
          :  scaling factor                  1.0000000      :
          :  rotor cutoff                   50.0000000 cm⁻¹ :
          :  imag. cutoff                  -20.0000000 cm⁻¹ :
          :.................................................:

    mode    ω/cm⁻¹     T·S(HO)/kcal·mol⁻¹    T·S(FR)/kcal·mol⁻¹   T·S(vib)
   ------------------------------------------------------------------------
       1      4.25    -2.89493 (  0.01%)    -1.78625 ( 99.99%)    -1.78630
       2     16.35    -2.09741 (  1.13%)    -1.38766 ( 98.87%)    -1.39568
       3     18.20    -2.03378 (  1.73%)    -1.35583 ( 98.27%)    -1.36753
       4     25.56    -1.83285 (  6.39%)    -1.25530 ( 93.61%)    -1.29221
       5     35.85    -1.63273 ( 20.90%)    -1.15507 ( 79.10%)    -1.25491
       6     36.75    -1.61808 ( 22.59%)    -1.14773 ( 77.41%)    -1.25398
       7     40.64    -1.55855 ( 30.39%)    -1.11788 ( 69.61%)    -1.25182
       8     48.02    -1.46007 ( 45.98%)    -1.06846 ( 54.02%)    -1.24852
       9     52.45    -1.40813 ( 54.76%)    -1.04237 ( 45.24%)    -1.24268
      10     59.38    -1.33498 ( 66.55%)    -1.00557 ( 33.45%)    -1.22480
      11     62.28    -1.30693 ( 70.66%)    -0.99145 ( 29.34%)    -1.21436
      12     71.46    -1.22622 ( 80.67%)    -0.95074 ( 19.33%)    -1.17295
      13     76.11    -1.18928 ( 84.30%)    -0.93208 ( 15.70%)    -1.14889
      14     86.49    -1.11445 ( 89.95%)    -0.89419 ( 10.05%)    -1.09232
      15     88.27    -1.10260 ( 90.66%)    -0.88817 (  9.34%)    -1.08258
      16     95.06    -1.05938 ( 92.89%)    -0.86621 (  7.11%)    -1.04564
      17    103.57    -1.00955 ( 94.85%)    -0.84081 (  5.15%)    -1.00086
      18    108.81    -0.98094 ( 95.73%)    -0.82619 (  4.27%)    -0.97433
      19    109.72    -0.97612 ( 95.87%)    -0.82373 (  4.13%)    -0.96982
      20    123.22    -0.90914 ( 97.36%)    -0.78935 (  2.64%)    -0.90598
      21    127.60    -0.88904 ( 97.70%)    -0.77899 (  2.30%)    -0.88650
      22    150.85    -0.79353 ( 98.81%)    -0.72942 (  1.19%)    -0.79276
      23    159.10    -0.76339 ( 99.03%)    -0.71363 (  0.97%)    -0.76291
      24    167.28    -0.73517 ( 99.21%)    -0.69878 (  0.79%)    -0.73489
      25    185.35    -0.67795 ( 99.47%)    -0.66840 (  0.53%)    -0.67790
      26    194.01    -0.65271 ( 99.56%)    -0.65488 (  0.44%)    -0.65272
      27    202.71    -0.62860 ( 99.63%)    -0.64188 (  0.37%)    -0.62865
      28    227.31    -0.56652 ( 99.77%)    -0.60795 (  0.23%)    -0.56662
      29    255.14    -0.50529 ( 99.85%)    -0.57373 (  0.15%)    -0.50539
      30    264.92    -0.48572 ( 99.87%)    -0.56259 (  0.13%)    -0.48581
      31    285.41    -0.44753 ( 99.91%)    -0.54052 (  0.09%)    -0.44762
   ------------------------------------------------------------------------

   temp. (K)  partition function   enthalpy   heat capacity  entropy
                                   cal/mol     cal/K/mol   cal/K/mol   J/K/mol
 298.15  VIB  0.505E+18            19676.356    104.844    130.826
         ROT  0.144E+08              888.752      2.981     35.735
         INT  0.727E+25            20565.108    107.825    166.561
         TR   0.618E+28             1481.254      4.968     43.384
         TOT                       22046.3621   112.7930   209.9456   878.4124

       T/K    H(0)-H(T)+PV         H(T)/Eh          T*S/Eh         G(T)/Eh
   ------------------------------------------------------------------------
    298.15    0.351331E-01    0.473968E+00    0.997519E-01    0.374216E+00
   ------------------------------------------------------------------------

         :::::::::::::::::::::::::::::::::::::::::::::::::::::
         ::                  THERMODYNAMIC                  ::
         :::::::::::::::::::::::::::::::::::::::::::::::::::::
         :: total free energy         -80.558284658941 Eh   ::
         ::.................................................::
         :: total energy              -80.932501070487 Eh   ::
         :: zero point energy           0.438835229486 Eh   ::
         :: G(RRHO) w/o ZPVE           -0.064618817940 Eh   ::
         :: G(RRHO) contrib.            0.374216411546 Eh   ::
         :::::::::::::::::::::::::::::::::::::::::::::::::::::

           -------------------------------------------------
          | TOTAL ENERGY              -80.932501070487 Eh   |
          | TOTAL ENTHALPY            -80.458532726655 Eh   |
          | TOTAL FREE ENERGY         -80.558284658941 Eh   |
          | GRADIENT NORM               0.000140420343 Eh/α |
          | HOMO-LUMO GAP               5.713943460169 eV   |
           -------------------------------------------------

------------------------------------------------------------------------
 * finished run on 2024/01/10 at 18:31:59.381     
------------------------------------------------------------------------
 total:
 * wall-time:     0 d,  0 h,  0 min, 14.536 sec
 *  cpu-time:     0 d,  0 h,  0 min, 14.451 sec
 * ratio c/w:     0.994 speedup
 SCF:
 * wall-time:     0 d,  0 h,  0 min,  0.083 sec
 *  cpu-time:     0 d,  0 h,  0 min,  0.058 sec
 * ratio c/w:     0.703 speedup
 analytical hessian:
 * wall-time:     0 d,  0 h,  0 min, 14.426 sec
 *  cpu-time:     0 d,  0 h,  0 min, 14.366 sec
 * ratio c/w:     0.996 speedup

