 Entering Gaussian System
 *********************************************
 Gaussian 98:
 frequency output generated by the xtb code
 *********************************************
                         Standard orientation:
 --------------------------------------------------------------------
  Center     Atomic     Atomic              Coordinates (Angstroms)
  Number     Number      Type              X           Y           Z
 --------------------------------------------------------------------
    1          8             0       -0.736226   -0.687960   -2.722119
    2          6             0       -0.456031   -1.998629   -2.332921
    3          1             0       -1.244637   -2.624032   -2.760783
    4          1             0        0.500655   -2.338239   -2.756339
    5          6             0       -0.346622   -2.211223   -0.814350
    6          1             0        0.490247   -1.629738   -0.416100
    7          1             0       -0.146784   -3.271696   -0.648324
    8          7             0       -1.537896   -1.830727   -0.009448
    9          6             0       -1.658245   -0.364074    0.072268
   10          1             0       -2.519833   -0.122890    0.691613
   11          1             0       -1.785728    0.051090   -0.924406
   12          1             0       -0.751122    0.032715    0.524566
   13          6             0       -1.348533   -2.336394    1.361454
   14          1             0       -2.200159   -2.024075    1.963978
   15          1             0       -0.430084   -1.915306    1.767737
   16          1             0       -1.285601   -3.422486    1.359878
   17          6             0       -2.783204   -2.384209   -0.560081
   18          1             0       -3.593492   -2.152665    0.130886
   19          1             0       -2.698793   -3.463259   -0.673990
   20          1             0       -2.998397   -1.931266   -1.524676
   21          1             0        0.017677   -0.111569   -2.440288
   22          6             0        2.458141   -0.369326    1.219343
   23          8             0        1.256073   -0.593971    1.325712
   24          7             0        3.078824   -0.304093    0.015763
   25          1             0        2.478415   -0.105064   -0.778568
   26          1             0        3.981757    0.141181   -0.032855
   27          7             0        3.251658   -0.207646    2.307341
   28          1             0        4.249025   -0.138903    2.216821
   29          1             0        2.871472   -0.416257    3.213381
   30          6             0        2.912880    2.851988    0.471662
   31          8             0        3.827413    2.507933   -0.272439
   32          7             0        1.616321    2.605380    0.186101
   33          1             0        1.410712    1.973111   -0.581895
   34          1             0        0.904072    2.746830    0.879073
   35          7             0        3.161448    3.493522    1.643097
   36          1             0        2.421541    3.935498    2.158616
   37          1             0        4.095187    3.837801    1.787433
   38          6             0        2.022297    1.238953   -3.046442
   39          8             0        1.392116    0.795137   -2.066963
   40          7             0        1.576261    1.014944   -4.300190
   41          1             0        0.697934    0.540846   -4.428005
   42          1             0        2.037376    1.399186   -5.104247
   43          7             0        3.160169    1.913926   -2.888791
   44          1             0        3.657380    2.295637   -3.672447
   45          1             0        3.488548    2.129735   -1.937883
   46          6             0       -5.192837   -0.886743    2.590531
   47          8             0       -4.199645   -1.113579    1.913053
   48          7             0       -5.243239   -1.167243    3.914298
   49          1             0       -4.413407   -1.501830    4.369607
   50          1             0       -6.027248   -0.911521    4.485634
   51          7             0       -6.314256   -0.338285    2.065470
   52          1             0       -7.157088   -0.230871    2.598978
   53          1             0       -6.357324   -0.182697    1.074533
 --------------------------------------------------------------------
     1 basis functions        1 primitive gaussians
     1 alpha electrons        1 beta electrons

 Harmonic frequencies (cm**-1), IR intensities (km*mol⁻¹),
 Raman scattering activities (A**4/amu), Raman depolarization ratios,
 reduced masses (AMU), force constants (mDyne/A) and normal coordinates:
                      1                      2                      3
                        a                      a                      a 
 Frequencies --     3.8936                10.9041                17.5294
 Red. masses --    11.1007                12.4532                11.8998
 Frc consts  --     0.0000                 0.0000                 0.0000
 IR Inten    --     0.0178                 0.0681                 0.3882
 Raman Activ --     0.0000                 0.0000                 0.0000
 Depolar     --     0.0000                 0.0000                 0.0000
 Atom AN      X      Y      Z        X      Y      Z        X      Y      Z
   1   8     0.01  -0.06   0.01     0.05  -0.17  -0.06     0.02   0.06  -0.11
   2   6     0.02  -0.04   0.02     0.05  -0.13  -0.01    -0.04   0.04  -0.12
   3   1     0.01  -0.02   0.01     0.02  -0.04   0.01    -0.02   0.02  -0.04
   4   1     0.01  -0.01   0.01     0.02  -0.04   0.00    -0.02   0.00  -0.04
   5   6     0.03  -0.03   0.02     0.06  -0.08   0.00    -0.06  -0.00  -0.13
   6   1     0.01  -0.00   0.00     0.02  -0.02  -0.01    -0.01  -0.01  -0.03
   7   1     0.01  -0.01   0.01     0.01  -0.02   0.01    -0.02  -0.00  -0.04
   8   7     0.03  -0.03   0.03     0.07  -0.04  -0.01    -0.05   0.01  -0.13
   9   6     0.02  -0.02   0.01     0.10  -0.03  -0.05    -0.01   0.01  -0.09
  10   1     0.01  -0.01   0.00     0.03   0.00  -0.01    -0.00   0.00  -0.03
  11   1     0.00  -0.01   0.00     0.03  -0.02  -0.02     0.00   0.01  -0.02
  12   1     0.00  -0.00  -0.00     0.03  -0.01  -0.02    -0.00  -0.01  -0.02
  13   6     0.03  -0.01   0.03     0.06   0.00   0.01    -0.07  -0.03  -0.13
  14   1     0.01  -0.00   0.01     0.02   0.01   0.00    -0.02  -0.01  -0.04
  15   1     0.01   0.00   0.01     0.02  -0.00  -0.00    -0.02  -0.02  -0.03
  16   1     0.01  -0.00   0.01     0.01   0.00   0.01    -0.03  -0.01  -0.05
  17   6     0.03  -0.04   0.03     0.06  -0.02   0.01    -0.06   0.05  -0.14
  18   1     0.01  -0.01   0.01     0.02   0.00   0.00    -0.02   0.02  -0.04
  19   1     0.01  -0.01   0.01     0.01  -0.01   0.01    -0.03   0.02  -0.05
  20   1     0.01  -0.02   0.01     0.02  -0.01  -0.00    -0.02   0.02  -0.04
  21   1     0.00  -0.01   0.00     0.01  -0.04  -0.02     0.01   0.00  -0.02
  22   6     0.02   0.02  -0.01     0.09  -0.05  -0.06    -0.09  -0.01   0.05
  23   8     0.03   0.01  -0.01     0.10  -0.04  -0.04    -0.09  -0.07  -0.03
  24   7     0.02   0.01  -0.01     0.06  -0.03  -0.08    -0.01   0.02   0.10
  25   1     0.00   0.00  -0.00     0.01  -0.00  -0.02     0.01  -0.01   0.01
  26   1     0.00   0.01  -0.00     0.02  -0.01  -0.02    -0.01   0.02   0.04
  27   7     0.02   0.03  -0.01     0.12  -0.08  -0.08    -0.18   0.04   0.11
  28   1     0.01   0.01  -0.00     0.03  -0.02  -0.03    -0.05   0.02   0.05
  29   1     0.01   0.01  -0.00     0.04  -0.02  -0.02    -0.06   0.00   0.02
  30   6    -0.05   0.01  -0.00    -0.23  -0.08   0.11    -0.14   0.04   0.01
  31   8    -0.05   0.04  -0.01    -0.23   0.07   0.09    -0.09   0.03   0.11
  32   7    -0.05  -0.02  -0.00    -0.23  -0.17   0.09    -0.12  -0.00  -0.08
  33   1    -0.01  -0.01  -0.00    -0.04  -0.04   0.01    -0.01  -0.01  -0.02
  34   1    -0.01  -0.01   0.00    -0.06  -0.09   0.03    -0.05   0.01  -0.04
  35   7    -0.06   0.00  -0.00    -0.30  -0.19   0.18    -0.26   0.12  -0.01
  36   1    -0.02  -0.01   0.00    -0.09  -0.08   0.06    -0.08   0.04  -0.03
  37   1    -0.02   0.01  -0.00    -0.09  -0.03   0.06    -0.08   0.04   0.01
  38   6    -0.02  -0.01  -0.01    -0.07   0.05   0.01     0.15  -0.09  -0.00
  39   8    -0.01  -0.02  -0.01    -0.04  -0.07  -0.02     0.09  -0.07  -0.04
  40   7    -0.02  -0.02  -0.01    -0.06   0.09  -0.00     0.26  -0.13  -0.03
  41   1    -0.00  -0.01  -0.00    -0.00   0.00  -0.01     0.07  -0.03  -0.02
  42   1    -0.01  -0.00  -0.00    -0.02   0.05   0.01     0.09  -0.04  -0.00
  43   7    -0.04   0.02  -0.01    -0.14   0.15   0.05     0.16  -0.10   0.07
  44   1    -0.01   0.01  -0.00    -0.05   0.07   0.02     0.06  -0.03   0.03
  45   1    -0.01   0.01  -0.00    -0.05   0.04   0.02     0.02  -0.02   0.02
  46   6     0.02   0.03  -0.01     0.11   0.19  -0.04     0.13   0.02   0.13
  47   8     0.03  -0.00   0.02     0.12   0.14  -0.03     0.03   0.03  -0.03
  48   7    -0.24  -0.48  -0.13     0.13   0.36  -0.01     0.35  -0.05   0.14
  49   1    -0.11  -0.25  -0.04     0.04   0.11   0.01     0.11  -0.03  -0.00
  50   1    -0.06  -0.13  -0.04     0.04   0.11  -0.01     0.12  -0.01   0.07
  51   7     0.26   0.60   0.06     0.11   0.14  -0.09     0.08   0.10   0.36
  52   1     0.06   0.17  -0.00     0.03   0.05  -0.03     0.04   0.02   0.13
  53   1     0.12   0.27   0.03     0.03   0.01  -0.03    -0.02   0.04   0.10
                      4                      5                      6
                        a                      a                      a 
 Frequencies --    22.4459                29.2210                34.6101
 Red. masses --    12.1290                12.2228                12.1546
 Frc consts  --     0.0000                 0.0000                 0.0000
 IR Inten    --     3.3717                 1.6761                 2.0782
 Raman Activ --     0.0000                 0.0000                 0.0000
 Depolar     --     0.0000                 0.0000                 0.0000
 Atom AN      X      Y      Z        X      Y      Z        X      Y      Z
   1   8    -0.02   0.00   0.05     0.07  -0.09  -0.06    -0.20   0.27   0.08
   2   6     0.01  -0.02  -0.04     0.10  -0.06  -0.01    -0.15   0.20  -0.06
   3   1     0.01  -0.00  -0.03     0.04  -0.03  -0.01    -0.05   0.07  -0.01
   4   1     0.01   0.01  -0.02     0.04  -0.01   0.01    -0.05   0.07  -0.05
   5   6    -0.00  -0.13  -0.06     0.06  -0.02  -0.00    -0.03   0.07  -0.09
   6   1     0.00  -0.05  -0.00    -0.00   0.02   0.00    -0.01   0.03  -0.03
   7   1    -0.01  -0.04  -0.04     0.04   0.00   0.01     0.01   0.02  -0.06
   8   7    -0.00  -0.17  -0.04    -0.01  -0.10  -0.06     0.01  -0.08   0.04
   9   6     0.04  -0.16   0.08    -0.16  -0.10  -0.14    -0.10  -0.09   0.13
  10   1     0.01  -0.05   0.03    -0.06  -0.05  -0.05    -0.02  -0.05   0.06
  11   1     0.01  -0.02   0.03    -0.05  -0.05  -0.05    -0.05  -0.01   0.05
  12   1     0.01  -0.06   0.03    -0.06   0.01  -0.04    -0.03  -0.01   0.03
  13   6    -0.03  -0.27  -0.08     0.01  -0.00  -0.02     0.16  -0.14  -0.01
  14   1    -0.01  -0.08  -0.02    -0.01  -0.02  -0.02     0.05  -0.07   0.02
  15   1    -0.01  -0.10  -0.01    -0.01   0.04  -0.01     0.05  -0.03  -0.02
  16   1    -0.02  -0.08  -0.05     0.04   0.00   0.01     0.07  -0.04  -0.02
  17   6    -0.01  -0.08  -0.10     0.07  -0.26  -0.05     0.01  -0.14   0.10
  18   1    -0.00  -0.03  -0.03     0.01  -0.09  -0.03     0.01  -0.07   0.06
  19   1    -0.01  -0.02  -0.05     0.05  -0.08   0.00     0.02  -0.04   0.01
  20   1     0.01   0.00  -0.02     0.01  -0.10  -0.02    -0.03  -0.03   0.04
  21   1    -0.01   0.00   0.03     0.00  -0.01  -0.00    -0.03   0.06   0.00
  22   6    -0.02  -0.13   0.06    -0.17   0.16   0.03    -0.01   0.06  -0.05
  23   8     0.01  -0.37   0.04    -0.22   0.30   0.03    -0.02   0.08  -0.07
  24   7    -0.03   0.10   0.08    -0.14  -0.04   0.04     0.01  -0.02  -0.04
  25   1    -0.02   0.02   0.03    -0.03  -0.01   0.00     0.01  -0.01  -0.02
  26   1    -0.03   0.07   0.03    -0.03  -0.04   0.00     0.00  -0.01  -0.01
  27   7    -0.05  -0.13   0.09    -0.20   0.23   0.03    -0.04   0.13  -0.05
  28   1    -0.02  -0.00   0.02    -0.05   0.04   0.01    -0.01   0.04  -0.01
  29   1    -0.00  -0.09   0.02    -0.06   0.10   0.01    -0.02   0.06  -0.01
  30   6     0.06   0.18  -0.03     0.12  -0.09   0.04    -0.06  -0.04   0.01
  31   8     0.04   0.07  -0.02     0.09  -0.12  -0.00    -0.02  -0.04   0.06
  32   7     0.06   0.16   0.04     0.10   0.02   0.06    -0.05  -0.03  -0.06
  33   1     0.00   0.03   0.02     0.01   0.02   0.01    -0.00  -0.01  -0.02
  34   1     0.02   0.09   0.00     0.04  -0.00   0.03    -0.02  -0.01  -0.02
  35   7     0.11   0.35  -0.14     0.20  -0.20   0.09    -0.12  -0.07   0.04
  36   1     0.04   0.11  -0.04     0.07  -0.05   0.03    -0.04  -0.02   0.00
  37   1     0.03   0.09  -0.05     0.06  -0.07   0.02    -0.03  -0.02   0.02
  38   6    -0.10   0.03   0.07    -0.07   0.06   0.01     0.11  -0.03  -0.03
  39   8    -0.10   0.08   0.12    -0.05   0.04   0.02     0.05   0.00  -0.07
  40   7    -0.15   0.01   0.10    -0.12   0.12   0.02     0.17  -0.01  -0.06
  41   1    -0.04   0.01   0.04    -0.03   0.03   0.01     0.04   0.02  -0.03
  42   1    -0.05  -0.01   0.02    -0.04   0.03   0.00     0.06  -0.00  -0.01
  43   7    -0.09   0.02   0.02    -0.06   0.04  -0.00     0.15  -0.10   0.02
  44   1    -0.03  -0.01  -0.00    -0.02   0.02  -0.00     0.05  -0.03   0.01
  45   1    -0.01   0.01   0.00    -0.00  -0.00  -0.00     0.02  -0.02   0.01
  46   6     0.07   0.08  -0.05     0.07   0.02  -0.01     0.03  -0.03   0.04
  47   8     0.03  -0.11  -0.05    -0.04  -0.19  -0.13     0.10  -0.32   0.24
  48   7     0.06   0.24  -0.02     0.22   0.13   0.02    -0.19   0.23   0.08
  49   1     0.01   0.05  -0.00     0.06   0.01  -0.02    -0.09   0.04   0.07
  50   1     0.03   0.10  -0.01     0.09   0.07   0.03    -0.07   0.11  -0.02
  51   7     0.13   0.19  -0.09     0.10   0.17   0.10     0.20   0.06  -0.22
  52   1     0.04   0.08  -0.03     0.05   0.08   0.05     0.03   0.07  -0.10
  53   1     0.03   0.02  -0.03    -0.00   0.02   0.02     0.10  -0.04  -0.07
                      7                      8                      9
                        a                      a                      a 
 Frequencies --    45.7216                48.9023                52.7463
 Red. masses --    12.0241                12.3384                12.8644
 Frc consts  --     0.0000                 0.0000                 0.0000
 IR Inten    --     8.6148                 1.8185                 8.8171
 Raman Activ --     0.0000                 0.0000                 0.0000
 Depolar     --     0.0000                 0.0000                 0.0000
 Atom AN      X      Y      Z        X      Y      Z        X      Y      Z
   1   8    -0.00   0.04   0.01    -0.17   0.09  -0.08     0.10   0.07   0.07
   2   6     0.10   0.07   0.05    -0.02   0.10  -0.10    -0.02   0.02   0.01
   3   1     0.05  -0.00   0.01     0.00   0.01  -0.02    -0.02   0.03  -0.01
   4   1     0.04   0.04   0.02    -0.00   0.05  -0.04    -0.01  -0.01   0.00
   5   6     0.08   0.11   0.06     0.04   0.09  -0.11    -0.06  -0.05  -0.00
   6   1     0.01   0.06   0.02     0.02   0.03  -0.04    -0.01  -0.03   0.01
   7   1     0.05   0.04   0.03     0.02   0.03  -0.03    -0.03  -0.02  -0.01
   8   7     0.04   0.03   0.02     0.08   0.09  -0.07    -0.07  -0.04  -0.01
   9   6    -0.10   0.02  -0.02     0.13   0.08   0.05    -0.04  -0.04   0.02
  10   1    -0.04  -0.01  -0.01     0.04   0.02   0.03    -0.01  -0.01   0.00
  11   1    -0.03  -0.00  -0.01     0.03   0.05   0.03    -0.01  -0.01   0.01
  12   1    -0.04   0.03   0.00     0.04   0.00   0.02    -0.01  -0.02   0.01
  13   6     0.04   0.08   0.04     0.06  -0.03  -0.10    -0.08  -0.07  -0.01
  14   1    -0.00   0.00   0.00     0.02  -0.01  -0.02    -0.02  -0.02  -0.00
  15   1    -0.00   0.05   0.02     0.02  -0.03  -0.02    -0.02  -0.03  -0.00
  16   1     0.04   0.02   0.02     0.01  -0.01  -0.05    -0.03  -0.02  -0.01
  17   6     0.10  -0.10   0.00     0.04   0.18  -0.10    -0.07  -0.01  -0.02
  18   1     0.02  -0.04  -0.01     0.02   0.05  -0.02    -0.02  -0.01  -0.00
  19   1     0.06  -0.03   0.01    -0.00   0.05  -0.05    -0.02  -0.00  -0.01
  20   1     0.02  -0.04  -0.00     0.02   0.08  -0.02    -0.02   0.00  -0.00
  21   1    -0.02   0.03  -0.00    -0.06   0.04  -0.00     0.04  -0.00   0.02
  22   6    -0.04  -0.07   0.03    -0.01   0.08   0.09     0.01   0.01   0.04
  23   8    -0.09   0.22   0.14     0.00   0.05   0.17     0.03  -0.12  -0.10
  24   7    -0.18   0.06  -0.03    -0.07   0.06   0.06     0.12   0.18   0.11
  25   1    -0.06   0.09   0.02    -0.03   0.01   0.02     0.05   0.04   0.01
  26   1    -0.02  -0.04  -0.01    -0.02   0.02   0.00     0.03   0.06   0.06
  27   7     0.14  -0.60  -0.02     0.03   0.20   0.05    -0.11   0.02   0.14
  28   1     0.04  -0.21  -0.03     0.01   0.06   0.00    -0.03   0.01   0.06
  29   1     0.05  -0.18  -0.01     0.02   0.06   0.02    -0.05  -0.04   0.02
  30   6    -0.05   0.08  -0.03    -0.01  -0.04   0.04     0.05   0.01  -0.03
  31   8    -0.09   0.10  -0.06    -0.08   0.02  -0.07     0.02   0.37  -0.24
  32   7    -0.08   0.22  -0.06    -0.03   0.01   0.13     0.06  -0.10   0.06
  33   1    -0.03   0.07  -0.03    -0.03   0.02   0.02     0.02   0.00  -0.01
  34   1    -0.02   0.05  -0.01     0.01  -0.01   0.05     0.04  -0.11   0.06
  35   7    -0.01  -0.06   0.04     0.11  -0.18   0.10     0.10  -0.27   0.12
  36   1     0.00  -0.01   0.02     0.04  -0.06   0.05     0.03  -0.13   0.08
  37   1     0.00  -0.04   0.02     0.03  -0.05   0.01     0.02  -0.04   0.02
  38   6     0.02  -0.01  -0.04    -0.15  -0.16   0.06     0.06   0.02  -0.09
  39   8    -0.09   0.18  -0.02    -0.24   0.03   0.13     0.20  -0.02  -0.03
  40   7     0.13  -0.22  -0.04    -0.09  -0.43   0.09     0.12  -0.29  -0.07
  41   1     0.03  -0.04  -0.01    -0.04  -0.10   0.04     0.04  -0.11   0.01
  42   1     0.05  -0.09  -0.02    -0.02  -0.14   0.01    -0.02  -0.04  -0.03
  43   7     0.02  -0.02  -0.04    -0.16  -0.17  -0.00    -0.14   0.37  -0.19
  44   1     0.03  -0.05  -0.02    -0.02  -0.10  -0.01    -0.05   0.08  -0.07
  45   1    -0.01   0.02  -0.01    -0.04  -0.01  -0.01    -0.03   0.11  -0.06
  46   6     0.00  -0.02  -0.01     0.12  -0.01  -0.07    -0.06  -0.00   0.04
  47   8    -0.06  -0.15  -0.06     0.19   0.09  -0.04    -0.10  -0.08   0.04
  48   7     0.05   0.04   0.00     0.09  -0.06  -0.09    -0.06   0.05   0.06
  49   1     0.01  -0.01  -0.01     0.02  -0.01  -0.02    -0.02   0.00   0.02
  50   1     0.03   0.04   0.01     0.01  -0.04  -0.03    -0.01   0.02   0.02
  51   7     0.03   0.06   0.03     0.12  -0.07  -0.12    -0.05   0.03   0.05
  52   1     0.01   0.03   0.02     0.03  -0.03  -0.04    -0.01   0.02   0.02
  53   1    -0.01  -0.00   0.00     0.05  -0.00  -0.03    -0.02  -0.00   0.01
                     10                     11                     12
                        a                      a                      a 
 Frequencies --    53.6364                60.5977                67.1485
 Red. masses --    11.8522                12.1507                13.1293
 Frc consts  --     0.0000                 0.0000                 0.0000
 IR Inten    --     3.4981                 0.9673                 1.5486
 Raman Activ --     0.0000                 0.0000                 0.0000
 Depolar     --     0.0000                 0.0000                 0.0000
 Atom AN      X      Y      Z        X      Y      Z        X      Y      Z
   1   8     0.02   0.07  -0.12    -0.00  -0.06  -0.13     0.07  -0.15  -0.07
   2   6    -0.10   0.04  -0.11    -0.10  -0.06  -0.07    -0.06  -0.15  -0.03
   3   1    -0.05   0.03  -0.02    -0.04  -0.00  -0.01    -0.04  -0.02  -0.00
   4   1    -0.05  -0.02  -0.05    -0.04  -0.04  -0.02    -0.03  -0.07  -0.01
   5   6    -0.02   0.07  -0.11    -0.08  -0.02  -0.07    -0.06  -0.14  -0.03
   6   1    -0.00   0.03  -0.05    -0.02   0.00  -0.03    -0.00  -0.06  -0.01
   7   1     0.00   0.02  -0.03    -0.02  -0.00  -0.01    -0.04  -0.04  -0.01
   8   7     0.02   0.07  -0.06    -0.07  -0.01  -0.05    -0.02  -0.04  -0.01
   9   6    -0.06   0.06  -0.15    -0.16  -0.01  -0.21     0.06  -0.03  -0.07
  10   1    -0.01   0.02  -0.03    -0.04  -0.00  -0.05     0.03   0.01  -0.01
  11   1    -0.04  -0.00  -0.05    -0.07  -0.04  -0.07     0.01  -0.02  -0.02
  12   1    -0.02   0.04  -0.07    -0.05   0.03  -0.09     0.03  -0.02  -0.04
  13   6     0.14   0.17  -0.03     0.05   0.16   0.00     0.01   0.01   0.01
  14   1     0.05   0.05   0.00     0.02   0.05   0.00     0.02   0.02   0.01
  15   1     0.04   0.07  -0.04     0.02   0.07  -0.03     0.01  -0.00  -0.01
  16   1     0.06   0.05   0.01     0.04   0.05   0.04    -0.01   0.00   0.02
  17   6     0.01  -0.05   0.08    -0.05  -0.17   0.09    -0.07  -0.00   0.07
  18   1     0.01  -0.02   0.04    -0.01  -0.05   0.03    -0.01   0.02   0.03
  19   1     0.02  -0.02   0.04     0.01  -0.05   0.06    -0.04  -0.00   0.04
  20   1    -0.03  -0.04   0.02    -0.04  -0.09   0.02    -0.02  -0.01   0.02
  21   1     0.01  -0.00  -0.01    -0.01  -0.02  -0.00     0.02  -0.04  -0.02
  22   6    -0.01  -0.03   0.12     0.08   0.01  -0.21    -0.18  -0.01   0.00
  23   8    -0.07   0.21  -0.07     0.09   0.01  -0.30    -0.20  -0.03  -0.01
  24   7     0.17  -0.04   0.22     0.13   0.01  -0.20    -0.20   0.06  -0.00
  25   1     0.08   0.01   0.04     0.03   0.00  -0.05    -0.06   0.03   0.00
  26   1     0.07  -0.06   0.09     0.03   0.02  -0.05    -0.06   0.02   0.00
  27   7    -0.14  -0.29   0.26     0.04   0.02  -0.19    -0.19  -0.08   0.01
  28   1    -0.03  -0.13   0.11     0.01   0.01  -0.04    -0.05  -0.01   0.00
  29   1    -0.09  -0.07   0.05     0.00   0.01  -0.05    -0.05  -0.03  -0.00
  30   6    -0.00   0.01  -0.06     0.06   0.10   0.14     0.05   0.03   0.01
  31   8    -0.01   0.08  -0.11     0.04   0.10   0.14     0.07  -0.08   0.08
  32   7     0.00  -0.16   0.04     0.07   0.02   0.25     0.04   0.24  -0.11
  33   1     0.01  -0.07   0.03     0.01   0.00   0.07     0.00   0.07  -0.03
  34   1     0.01  -0.07   0.03     0.02   0.02   0.07     0.00   0.09  -0.05
  35   7    -0.00   0.13  -0.12     0.11   0.22   0.08     0.05  -0.07   0.07
  36   1    -0.01   0.02  -0.03     0.03   0.06   0.03     0.02   0.00   0.01
  37   1    -0.01   0.07  -0.06     0.03   0.07   0.00     0.02  -0.06   0.04
  38   6    -0.05  -0.06   0.05    -0.02  -0.07   0.14     0.02   0.08  -0.03
  39   8     0.14  -0.26   0.10    -0.12   0.04   0.15    -0.04   0.11  -0.08
  40   7    -0.26   0.12   0.09     0.15  -0.30   0.13     0.16  -0.02  -0.07
  41   1    -0.06   0.01   0.04     0.03  -0.07   0.03     0.05  -0.00  -0.03
  42   1    -0.10   0.05   0.02     0.05  -0.08   0.04     0.05   0.01  -0.01
  43   7    -0.05  -0.04  -0.04    -0.07  -0.01   0.17    -0.05   0.20   0.02
  44   1    -0.06   0.04  -0.02     0.01  -0.04   0.04     0.01   0.03   0.01
  45   1     0.00  -0.01  -0.02    -0.03   0.01   0.05    -0.01   0.03   0.01
  46   6     0.08  -0.01   0.00    -0.04   0.01   0.03     0.14   0.04   0.07
  47   8     0.16   0.03   0.10    -0.04   0.01   0.04     0.36   0.30   0.29
  48   7    -0.03  -0.02  -0.00    -0.04   0.01   0.03    -0.10  -0.08   0.04
  49   1    -0.01   0.00   0.02    -0.01   0.00   0.01    -0.03   0.02   0.05
  50   1    -0.02  -0.02  -0.02    -0.01   0.00   0.01    -0.07  -0.06  -0.03
  51   7     0.10  -0.07  -0.10    -0.04   0.00   0.02     0.15  -0.16  -0.14
  52   1     0.02  -0.02  -0.04    -0.01   0.00   0.01     0.01  -0.06  -0.08
  53   1     0.05  -0.01  -0.03    -0.01   0.00   0.01     0.10   0.00  -0.03
                     13                     14                     15
                        a                      a                      a 
 Frequencies --    76.7739                78.6089                88.4045
 Red. masses --    12.8495                12.9487                12.3555
 Frc consts  --     0.0000                 0.0000                 0.0000
 IR Inten    --    11.5745                 0.3119                 2.2411
 Raman Activ --     0.0000                 0.0000                 0.0000
 Depolar     --     0.0000                 0.0000                 0.0000
 Atom AN      X      Y      Z        X      Y      Z        X      Y      Z
   1   8     0.09  -0.10  -0.13     0.14  -0.19  -0.14     0.00   0.04  -0.08
   2   6     0.09  -0.06  -0.04     0.08  -0.14  -0.04    -0.07   0.02  -0.08
   3   1     0.03  -0.03  -0.01     0.02  -0.04  -0.01    -0.04   0.02  -0.01
   4   1     0.03  -0.02   0.00     0.03  -0.05   0.01    -0.03  -0.01  -0.04
   5   6     0.05   0.04  -0.02     0.01  -0.06  -0.03    -0.01   0.02  -0.08
   6   1     0.02   0.01  -0.01     0.01  -0.03  -0.01     0.00   0.01  -0.04
   7   1     0.01   0.01   0.01    -0.02  -0.02   0.01     0.00   0.01  -0.02
   8   7     0.04   0.13  -0.08     0.00   0.05  -0.09     0.03   0.02  -0.03
   9   6     0.15   0.12  -0.04     0.11   0.06  -0.11    -0.02   0.02  -0.10
  10   1     0.04   0.05  -0.02     0.04   0.04  -0.03    -0.00   0.01  -0.02
  11   1     0.06   0.05  -0.01     0.04   0.01  -0.03    -0.02  -0.01  -0.03
  12   1     0.05   0.01   0.00     0.04   0.00  -0.03    -0.00   0.02  -0.05
  13   6    -0.07   0.06  -0.08    -0.08   0.06  -0.07     0.13   0.10  -0.01
  14   1    -0.03   0.02  -0.03    -0.03   0.03  -0.03     0.04   0.03   0.01
  15   1    -0.02   0.00  -0.00    -0.02   0.00  -0.01     0.04   0.04  -0.02
  16   1    -0.03   0.02  -0.03    -0.04   0.02  -0.02     0.05   0.03   0.01
  17   6     0.02   0.24  -0.15    -0.02   0.14  -0.12     0.02  -0.06   0.09
  18   1     0.00   0.07  -0.05    -0.01   0.05  -0.04     0.02  -0.02   0.04
  19   1    -0.01   0.07  -0.07    -0.03   0.04  -0.04     0.02  -0.02   0.04
  20   1     0.03   0.09  -0.04     0.01   0.05  -0.04    -0.02  -0.04   0.02
  21   1     0.02  -0.02  -0.03     0.02  -0.04  -0.02     0.00  -0.00   0.00
  22   6    -0.01  -0.01   0.03     0.02   0.04  -0.02     0.14  -0.03   0.06
  23   8    -0.03   0.11   0.10     0.03  -0.04  -0.08     0.18  -0.17  -0.02
  24   7    -0.05  -0.18  -0.00     0.04   0.21  -0.00     0.21   0.04   0.10
  25   1    -0.02  -0.04   0.00     0.01   0.06  -0.00     0.06  -0.01   0.02
  26   1    -0.01  -0.06  -0.02     0.01   0.06   0.01     0.04   0.05   0.04
  27   7     0.04   0.00  -0.02    -0.02   0.01   0.01     0.06   0.06   0.12
  28   1     0.01  -0.02  -0.02    -0.00   0.01   0.01     0.02   0.04   0.05
  29   1     0.02   0.04   0.00    -0.01  -0.04  -0.01     0.01  -0.00   0.02
  30   6     0.01  -0.05   0.00    -0.00   0.07   0.01    -0.02  -0.02  -0.06
  31   8     0.02  -0.23   0.09    -0.03   0.24  -0.08     0.05  -0.25   0.12
  32   7     0.02  -0.09   0.02    -0.02   0.13   0.00    -0.04   0.43  -0.40
  33   1     0.00  -0.04   0.02    -0.01   0.05  -0.01    -0.01   0.09  -0.09
  34   1    -0.00   0.02  -0.01     0.01  -0.01   0.02    -0.03   0.15  -0.14
  35   7     0.00   0.18  -0.13     0.03  -0.17   0.14    -0.09  -0.23   0.06
  36   1     0.00   0.07  -0.05     0.01  -0.07   0.06    -0.02  -0.01  -0.02
  37   1     0.00   0.04  -0.04     0.01  -0.05   0.04    -0.00  -0.14   0.08
  38   6    -0.04   0.02   0.01    -0.00  -0.04   0.01    -0.06  -0.01   0.07
  39   8     0.01  -0.08  -0.01    -0.08   0.07   0.03     0.00  -0.06   0.11
  40   7     0.09  -0.14  -0.01    -0.16   0.19   0.03    -0.09  -0.06   0.09
  41   1     0.04  -0.06  -0.01    -0.05   0.06   0.01    -0.02  -0.03   0.04
  42   1    -0.00   0.01   0.00     0.00  -0.02   0.00    -0.04  -0.00   0.02
  43   7    -0.22   0.32   0.04     0.23  -0.42  -0.01    -0.14   0.11   0.04
  44   1    -0.05   0.07   0.01     0.04  -0.09  -0.00    -0.04   0.02   0.00
  45   1    -0.04   0.04   0.01     0.04  -0.06  -0.01    -0.01   0.00   0.01
  46   6    -0.05  -0.10   0.11    -0.06  -0.05   0.13    -0.07  -0.01  -0.00
  47   8    -0.08  -0.40   0.19    -0.05  -0.23   0.24    -0.13  -0.07  -0.05
  48   7    -0.16   0.10   0.16    -0.19   0.08   0.17    -0.02   0.02   0.01
  49   1    -0.07  -0.01   0.06    -0.07   0.00   0.07    -0.00   0.00  -0.01
  50   1    -0.04   0.08   0.02    -0.06   0.05   0.02     0.01   0.03   0.01
  51   7     0.07   0.06   0.01     0.02   0.02   0.02    -0.07   0.05   0.05
  52   1     0.01   0.05  -0.02    -0.00   0.03  -0.01    -0.02   0.01   0.02
  53   1     0.03  -0.05  -0.01     0.02  -0.03  -0.00    -0.04  -0.01   0.01
                     16                     17                     18
                        a                      a                      a 
 Frequencies --    99.8901               104.7104               106.3198
 Red. masses --    12.6311                11.8538                12.0325
 Frc consts  --     0.0000                 0.0000                 0.0000
 IR Inten    --     3.0620                15.2146                 4.5658
 Raman Activ --     0.0000                 0.0000                 0.0000
 Depolar     --     0.0000                 0.0000                 0.0000
 Atom AN      X      Y      Z        X      Y      Z        X      Y      Z
   1   8     0.13   0.06   0.22    -0.01   0.02  -0.04    -0.18  -0.15  -0.02
   2   6     0.12   0.04   0.14     0.02  -0.01  -0.14    -0.31  -0.17  -0.02
   3   1     0.05   0.01   0.01    -0.00   0.01  -0.04    -0.13  -0.02   0.03
   4   1     0.05   0.03   0.06    -0.00   0.01  -0.07    -0.12  -0.09  -0.04
   5   6    -0.00  -0.02   0.14     0.12  -0.10  -0.16    -0.15  -0.13  -0.03
   6   1    -0.01  -0.01   0.06     0.04  -0.03  -0.06    -0.01  -0.06  -0.04
   7   1    -0.01  -0.01   0.03     0.04  -0.03  -0.07    -0.07  -0.04  -0.00
   8   7    -0.06   0.01   0.05     0.19  -0.16  -0.05    -0.03   0.01   0.09
   9   6     0.03   0.01   0.15     0.23  -0.15   0.11     0.18   0.02   0.13
  10   1     0.01   0.00   0.04     0.08  -0.05   0.05     0.07   0.03   0.05
  11   1     0.02   0.02   0.05     0.06  -0.01   0.05     0.05   0.02   0.04
  12   1     0.01  -0.02   0.05     0.08  -0.06   0.03     0.07  -0.03   0.03
  13   6    -0.20  -0.11   0.03     0.21  -0.28  -0.11     0.02  -0.05   0.06
  14   1    -0.07  -0.03  -0.01     0.07  -0.10  -0.01     0.02  -0.01   0.03
  15   1    -0.06  -0.05   0.04     0.06  -0.09  -0.03     0.02  -0.03   0.01
  16   1    -0.07  -0.03  -0.01     0.06  -0.08  -0.06    -0.02  -0.02   0.01
  17   6    -0.04   0.13  -0.11     0.11  -0.02  -0.03    -0.14   0.19   0.16
  18   1    -0.02   0.04  -0.05     0.04   0.00   0.00    -0.02   0.07   0.07
  19   1    -0.03   0.04  -0.06     0.01  -0.01  -0.03    -0.08   0.05   0.03
  20   1     0.03   0.06  -0.03     0.03   0.01   0.00    -0.05   0.08   0.06
  21   1     0.03   0.01   0.07    -0.00  -0.00  -0.00    -0.02  -0.06  -0.02
  22   6    -0.02   0.02  -0.20    -0.03   0.09  -0.03     0.00   0.09  -0.00
  23   8    -0.08   0.23  -0.43    -0.08   0.33  -0.07    -0.03   0.26   0.01
  24   7     0.19  -0.15  -0.12     0.01  -0.03  -0.02    -0.02   0.09  -0.01
  25   1     0.08  -0.01  -0.05     0.01   0.02  -0.01    -0.01   0.03  -0.00
  26   1     0.07  -0.07   0.00     0.02  -0.05  -0.00     0.01  -0.01  -0.01
  27   7    -0.19  -0.07  -0.08    -0.02  -0.08  -0.02     0.06  -0.07  -0.02
  28   1    -0.04  -0.05   0.03    -0.00  -0.05   0.00     0.02  -0.05  -0.01
  29   1    -0.11   0.02  -0.04    -0.03   0.02  -0.00     0.01  -0.01  -0.00
  30   6    -0.05   0.02  -0.02     0.01   0.03   0.01     0.08   0.08   0.03
  31   8    -0.06  -0.07   0.02    -0.00   0.01   0.01     0.14   0.19   0.05
  32   7    -0.07   0.20  -0.11    -0.00   0.06   0.02     0.10   0.10  -0.06
  33   1    -0.02   0.03  -0.01    -0.00   0.01   0.01     0.04   0.02  -0.01
  34   1    -0.02   0.05  -0.03     0.00   0.01   0.01     0.02  -0.01  -0.01
  35   7    -0.04  -0.04   0.02     0.03   0.02   0.02     0.01  -0.00   0.09
  36   1    -0.01   0.02  -0.01     0.01   0.01   0.00    -0.01  -0.02   0.03
  37   1    -0.00  -0.03   0.01     0.01   0.00   0.00    -0.00   0.00   0.05
  38   6    -0.00  -0.03   0.09     0.00  -0.03   0.02     0.01  -0.04   0.02
  39   8     0.11  -0.01   0.19     0.03  -0.07   0.02     0.00  -0.21  -0.07
  40   7    -0.13  -0.11   0.16    -0.00  -0.03   0.02     0.08   0.08  -0.03
  41   1    -0.03  -0.04   0.08    -0.00  -0.00   0.01     0.03   0.01  -0.03
  42   1    -0.06  -0.04   0.02    -0.01   0.01   0.01     0.02   0.06   0.01
  43   7    -0.01  -0.00  -0.02    -0.02   0.00   0.02    -0.03   0.02   0.12
  44   1    -0.02  -0.00  -0.02    -0.01   0.01   0.01    -0.02   0.03   0.04
  45   1     0.01   0.01  -0.01    -0.00  -0.00   0.01    -0.01  -0.00   0.04
  46   6     0.08  -0.02  -0.04    -0.18   0.11   0.09     0.04  -0.08  -0.13
  47   8     0.10  -0.03  -0.03    -0.19   0.28   0.08    -0.06  -0.25  -0.24
  48   7     0.08  -0.00  -0.04    -0.19  -0.04   0.07     0.18   0.02  -0.11
  49   1     0.01  -0.03  -0.01    -0.01   0.09   0.03     0.04  -0.06  -0.06
  50   1     0.01  -0.03  -0.02    -0.02   0.06   0.04     0.06  -0.01  -0.01
  51   7     0.10  -0.05  -0.07    -0.26   0.09   0.17     0.05   0.01  -0.05
  52   1     0.03   0.02  -0.02    -0.09  -0.09   0.04     0.04   0.07   0.02
  53   1     0.04   0.01  -0.01    -0.10  -0.02   0.04    -0.00   0.01  -0.01
                     19                     20                     21
                        a                      a                      a 
 Frequencies --   115.9181               123.9332               132.0954
 Red. masses --    12.4734                12.0395                 4.4092
 Frc consts  --     0.0000                 0.0000                 0.0000
 IR Inten    --    22.0325                 0.4392                 4.6278
 Raman Activ --     0.0000                 0.0000                 0.0000
 Depolar     --     0.0000                 0.0000                 0.0000
 Atom AN      X      Y      Z        X      Y      Z        X      Y      Z
   1   8    -0.06  -0.04  -0.00    -0.34  -0.15  -0.03     0.01  -0.00  -0.02
   2   6     0.01  -0.01   0.03     0.11  -0.02   0.06     0.01  -0.01  -0.03
   3   1     0.00  -0.01   0.03     0.10  -0.09   0.02     0.00   0.00  -0.01
   4   1    -0.00   0.00  -0.00     0.07   0.08   0.04     0.00  -0.00  -0.01
   5   6     0.12   0.05   0.03     0.08   0.14   0.09     0.02  -0.03  -0.04
   6   1     0.04   0.02  -0.01    -0.01   0.09   0.02     0.01  -0.01  -0.01
   7   1     0.03   0.02   0.02     0.08   0.05   0.06     0.00  -0.01  -0.02
   8   7     0.19   0.10   0.11    -0.04  -0.00  -0.02     0.02  -0.04  -0.02
   9   6     0.20   0.10   0.08    -0.15  -0.02   0.07     0.03  -0.04   0.00
  10   1     0.07   0.04   0.03    -0.06  -0.03   0.01     0.01  -0.02   0.01
  11   1     0.05   0.02   0.02    -0.03   0.01   0.03     0.00  -0.01   0.00
  12   1     0.07   0.03   0.01    -0.06   0.01   0.04     0.01  -0.01  -0.00
  13   6     0.23   0.12   0.11    -0.15  -0.08  -0.04     0.03  -0.05  -0.03
  14   1     0.07   0.04   0.04    -0.06  -0.03  -0.02     0.01  -0.01  -0.01
  15   1     0.07   0.04   0.02    -0.05  -0.03   0.02     0.01  -0.02  -0.01
  16   1     0.07   0.03   0.03    -0.04  -0.02  -0.03     0.00  -0.01  -0.01
  17   6     0.15   0.11   0.18     0.06  -0.03  -0.20     0.01  -0.02  -0.01
  18   1     0.05   0.04   0.06    -0.01  -0.04  -0.08     0.00   0.00  -0.00
  19   1     0.04   0.03   0.06     0.04  -0.01  -0.08    -0.00  -0.01  -0.00
  20   1     0.03   0.02   0.05     0.04   0.01  -0.06     0.00  -0.01  -0.00
  21   1    -0.02   0.00  -0.01    -0.11   0.01  -0.05     0.00   0.00  -0.00
  22   6    -0.12  -0.04  -0.08     0.09   0.08   0.01     0.03   0.04   0.02
  23   8    -0.13  -0.24  -0.32     0.09   0.09  -0.16     0.03   0.07   0.00
  24   7     0.03   0.17   0.02     0.21   0.27   0.08     0.05   0.06   0.03
  25   1     0.03   0.03  -0.01     0.07   0.05   0.01     0.01   0.02   0.01
  26   1    -0.01   0.09   0.05     0.05   0.09   0.05     0.01   0.02   0.01
  27   7    -0.37  -0.07   0.08    -0.01  -0.10   0.12     0.02  -0.02   0.04
  28   1    -0.10   0.02   0.08    -0.00  -0.04   0.06     0.01  -0.01   0.02
  29   1    -0.14  -0.07  -0.01    -0.03  -0.06   0.01     0.00  -0.01   0.01
  30   6    -0.01  -0.08   0.04     0.09  -0.05  -0.01    -0.02  -0.03   0.01
  31   8    -0.05  -0.18   0.05     0.22  -0.02   0.11    -0.05  -0.11   0.02
  32   7    -0.02  -0.12   0.12     0.15  -0.14  -0.14    -0.03  -0.00   0.05
  33   1    -0.02  -0.01   0.02     0.05  -0.04  -0.04    -0.02   0.00   0.01
  34   1    -0.01   0.02   0.02     0.02  -0.02  -0.06    -0.01   0.01   0.01
  35   7     0.04   0.01  -0.02    -0.07  -0.01   0.00     0.03   0.02  -0.02
  36   1     0.02   0.03  -0.01    -0.04  -0.02  -0.02     0.02   0.02  -0.01
  37   1     0.01   0.00  -0.02    -0.03   0.01   0.03     0.01  -0.01  -0.01
  38   6    -0.04   0.04  -0.07    -0.09  -0.02  -0.01    -0.00   0.02  -0.03
  39   8    -0.13   0.16  -0.09    -0.25  -0.08  -0.14    -0.03   0.06  -0.03
  40   7     0.03  -0.02  -0.09     0.10   0.05  -0.10     0.01  -0.00  -0.03
  41   1    -0.00   0.01  -0.03     0.03   0.02  -0.07    -0.00   0.01  -0.01
  42   1     0.03  -0.03  -0.02     0.06   0.03   0.00     0.01  -0.01  -0.01
  43   7     0.00  -0.03  -0.06    -0.14   0.01   0.17     0.01  -0.00  -0.03
  44   1     0.03  -0.04  -0.01    -0.01  -0.00   0.06     0.01  -0.01  -0.01
  45   1    -0.00  -0.01  -0.01    -0.04  -0.02   0.05     0.00  -0.00  -0.01
  46   6    -0.04  -0.03  -0.05     0.02   0.03   0.03    -0.05   0.02   0.03
  47   8    -0.11  -0.13  -0.12     0.06   0.11   0.08    -0.05   0.05   0.02
  48   7     0.05   0.01  -0.03    -0.04  -0.02   0.03     0.07   0.29   0.06
  49   1     0.02  -0.01  -0.02    -0.00   0.03   0.02    -0.13  -0.35  -0.04
  50   1     0.03   0.03   0.01    -0.01   0.00   0.00    -0.19  -0.44  -0.04
  51   7    -0.04   0.06   0.03     0.01  -0.01   0.00    -0.14  -0.27  -0.01
  52   1    -0.01  -0.00   0.02    -0.01  -0.03  -0.01     0.10   0.45   0.10
  53   1    -0.04  -0.02   0.00     0.01  -0.01  -0.00     0.09   0.36   0.06
                     22                     23                     24
                        a                      a                      a 
 Frequencies --   135.8484               147.9528               169.3793
 Red. masses --    12.5398                13.1472                12.4756
 Frc consts  --     0.0000                 0.0000                 0.0000
 IR Inten    --     0.0866                13.0555                21.0423
 Raman Activ --     0.0000                 0.0000                 0.0000
 Depolar     --     0.0000                 0.0000                 0.0000
 Atom AN      X      Y      Z        X      Y      Z        X      Y      Z
   1   8     0.06  -0.01   0.03    -0.15  -0.03  -0.03    -0.16  -0.12  -0.06
   2   6    -0.09  -0.05  -0.01     0.05   0.02   0.03    -0.04  -0.07  -0.00
   3   1    -0.05   0.02  -0.01     0.04  -0.03   0.02    -0.00  -0.04   0.01
   4   1    -0.04  -0.04  -0.00     0.03   0.04   0.01    -0.01  -0.01  -0.00
   5   6    -0.12  -0.11  -0.01     0.09   0.15   0.04     0.00   0.00   0.01
   6   1    -0.03  -0.05   0.00     0.00   0.08   0.00    -0.00   0.01  -0.01
   7   1    -0.06  -0.04  -0.01     0.07   0.05   0.04     0.01   0.01   0.01
   8   7    -0.12  -0.06  -0.01     0.03   0.05   0.01    -0.00  -0.01   0.01
   9   6    -0.03  -0.05  -0.02    -0.08   0.03   0.05     0.00  -0.00   0.02
  10   1    -0.00  -0.00  -0.01    -0.04  -0.01  -0.00    -0.00  -0.00   0.00
  11   1    -0.00  -0.01  -0.01    -0.01   0.02   0.01     0.00  -0.00   0.01
  12   1    -0.00  -0.03  -0.01    -0.04   0.02   0.04    -0.00  -0.00   0.01
  13   6    -0.11  -0.06  -0.01    -0.01   0.01  -0.00    -0.01  -0.02   0.01
  14   1    -0.03  -0.01  -0.00    -0.01  -0.00  -0.00    -0.00  -0.00   0.00
  15   1    -0.03  -0.02  -0.01    -0.00   0.00   0.01    -0.00  -0.01   0.00
  16   1    -0.04  -0.02  -0.00     0.00   0.00  -0.01    -0.00  -0.00  -0.00
  17   6    -0.14  -0.00  -0.00     0.09  -0.02  -0.07    -0.00   0.00   0.00
  18   1    -0.03   0.01   0.00     0.01  -0.03  -0.03    -0.00   0.00  -0.00
  19   1    -0.06  -0.00  -0.00     0.05  -0.00  -0.04    -0.00   0.00  -0.00
  20   1    -0.04   0.00   0.00     0.03   0.01  -0.02     0.00   0.00   0.00
  21   1     0.03  -0.02   0.00    -0.03  -0.00  -0.04    -0.05  -0.01  -0.04
  22   6     0.14   0.15   0.07    -0.03  -0.06  -0.04     0.09  -0.15   0.09
  23   8     0.15   0.22  -0.00    -0.02  -0.16  -0.01     0.06   0.02  -0.02
  24   7     0.21   0.26   0.11    -0.06  -0.02  -0.04     0.26  -0.58   0.13
  25   1     0.06   0.08   0.03    -0.01  -0.01  -0.02     0.10  -0.14   0.02
  26   1     0.05   0.08   0.04    -0.02  -0.01  -0.01     0.09  -0.20   0.04
  27   7     0.14  -0.03   0.13    -0.04   0.04  -0.05    -0.06   0.05   0.17
  28   1     0.04  -0.03   0.04    -0.01  -0.00  -0.02    -0.01  -0.00   0.09
  29   1     0.03  -0.04   0.02     0.00  -0.02  -0.02    -0.07   0.12   0.05
  30   6    -0.08  -0.09   0.09     0.00   0.13   0.16    -0.02   0.12  -0.01
  31   8    -0.24  -0.40   0.07    -0.13   0.01   0.10    -0.10   0.19  -0.12
  32   7    -0.16   0.07   0.26    -0.08   0.35   0.22    -0.05   0.17   0.06
  33   1    -0.08   0.02   0.08    -0.03   0.07   0.08    -0.02   0.06   0.01
  34   1    -0.03   0.07   0.08    -0.00   0.08   0.08    -0.00   0.03   0.03
  35   7     0.15   0.06  -0.04     0.17   0.07   0.17     0.10  -0.00   0.05
  36   1     0.08   0.07  -0.00     0.08   0.05   0.06     0.04   0.01   0.02
  37   1     0.06  -0.03  -0.05     0.06  -0.02   0.03     0.03   0.00  -0.02
  38   6     0.02   0.04  -0.13     0.04  -0.18  -0.13    -0.05   0.10  -0.07
  39   8     0.02   0.14  -0.12     0.22  -0.51  -0.19    -0.21   0.25  -0.13
  40   7     0.02  -0.01  -0.13    -0.05   0.06  -0.16     0.14   0.05  -0.14
  41   1    -0.00   0.02  -0.03     0.02  -0.03  -0.06     0.02   0.05  -0.07
  42   1     0.01  -0.01  -0.04    -0.04   0.07  -0.03     0.08   0.01  -0.02
  43   7     0.06  -0.01  -0.17    -0.05  -0.03  -0.10     0.02  -0.01  -0.01
  44   1     0.03  -0.02  -0.04    -0.05   0.07  -0.02     0.03  -0.03   0.00
  45   1     0.01  -0.02  -0.04    -0.02  -0.02  -0.03    -0.02   0.02   0.00
  46   6     0.03  -0.01  -0.02     0.00   0.01   0.01    -0.00   0.00  -0.00
  47   8     0.03  -0.02  -0.02     0.01   0.03   0.02    -0.00   0.00  -0.01
  48   7     0.00  -0.07  -0.03    -0.01   0.01   0.01     0.00  -0.00  -0.00
  49   1     0.03   0.07   0.01    -0.01  -0.01   0.00     0.00   0.00  -0.00
  50   1     0.05   0.09   0.01    -0.01  -0.02  -0.00     0.00   0.01   0.00
  51   7     0.05   0.05  -0.01    -0.00  -0.01   0.00    -0.00   0.00   0.00
  52   1    -0.02  -0.09  -0.03     0.00   0.01   0.00    -0.00  -0.01   0.00
  53   1    -0.01  -0.07  -0.02     0.01   0.01   0.00    -0.00  -0.00  -0.00
                     25                     26                     27
                        a                      a                      a 
 Frequencies --   185.3285               192.6624               257.6067
 Red. masses --    12.5075                10.7611                12.0494
 Frc consts  --     0.0000                 0.0000                 0.0000
 IR Inten    --    33.1872                 8.7113                21.0625
 Raman Activ --     0.0000                 0.0000                 0.0000
 Depolar     --     0.0000                 0.0000                 0.0000
 Atom AN      X      Y      Z        X      Y      Z        X      Y      Z
   1   8    -0.04  -0.07  -0.10     0.31  -0.15  -0.48    -0.45  -0.24   0.16
   2   6    -0.03  -0.04   0.00    -0.12  -0.09  -0.02    -0.23  -0.23   0.01
   3   1    -0.01  -0.02   0.02    -0.10   0.01   0.06    -0.09  -0.08   0.06
   4   1    -0.01  -0.02   0.00    -0.07  -0.15   0.00    -0.10  -0.05  -0.07
   5   6     0.02   0.09   0.01    -0.01   0.31   0.02     0.09   0.00  -0.01
   6   1    -0.01   0.06  -0.01    -0.04   0.19  -0.05     0.02   0.06  -0.06
   7   1     0.04   0.03   0.02     0.10   0.12   0.06     0.07   0.02   0.06
   8   7     0.00   0.02   0.02    -0.06   0.05   0.11     0.07   0.04  -0.07
   9   6    -0.05   0.01   0.07    -0.20   0.02   0.32    -0.03   0.03  -0.05
  10   1    -0.03  -0.01   0.00    -0.12  -0.04   0.03    -0.01  -0.02  -0.00
  11   1     0.00   0.01   0.02     0.02   0.05   0.10    -0.03   0.02  -0.01
  12   1    -0.03   0.01   0.04    -0.11   0.01   0.19    -0.02   0.03  -0.02
  13   6     0.01  -0.03   0.00     0.05  -0.20  -0.00     0.00   0.08  -0.05
  14   1     0.00  -0.01   0.01     0.04  -0.07   0.04    -0.00   0.04  -0.02
  15   1     0.01  -0.02   0.00     0.03  -0.10  -0.01     0.00   0.02  -0.01
  16   1    -0.00  -0.01  -0.01    -0.01  -0.06  -0.06    -0.01   0.02  -0.00
  17   6     0.02   0.00  -0.01    -0.02   0.02   0.06     0.14  -0.01  -0.20
  18   1     0.00  -0.02   0.00     0.00  -0.08   0.06     0.04  -0.10  -0.03
  19   1     0.02   0.00  -0.02     0.03   0.02  -0.07     0.09   0.01  -0.16
  20   1    -0.00   0.02   0.01    -0.05   0.07   0.06     0.01   0.08  -0.01
  21   1    -0.01  -0.02  -0.03     0.06  -0.05  -0.06    -0.11  -0.06   0.02
  22   6    -0.01   0.00  -0.03     0.00  -0.00  -0.01    -0.01   0.01  -0.00
  23   8     0.00  -0.06  -0.04     0.00  -0.02  -0.00    -0.01  -0.02   0.02
  24   7    -0.03   0.11  -0.02     0.01  -0.01  -0.01    -0.03   0.01  -0.01
  25   1    -0.01   0.03  -0.01     0.00   0.00  -0.00    -0.00   0.03   0.00
  26   1    -0.00   0.02  -0.00    -0.00   0.00   0.00    -0.01   0.00   0.00
  27   7    -0.02   0.06  -0.02     0.00  -0.01  -0.02     0.02  -0.01  -0.03
  28   1    -0.00  -0.05  -0.01    -0.00   0.02  -0.00    -0.00   0.05  -0.01
  29   1     0.00  -0.06  -0.02     0.00   0.01  -0.00     0.01   0.02   0.00
  30   6    -0.11  -0.05  -0.19     0.01  -0.01   0.02    -0.01  -0.02   0.00
  31   8    -0.26  -0.06  -0.39     0.04  -0.01   0.06    -0.01  -0.04   0.02
  32   7    -0.18   0.04   0.02     0.03  -0.03  -0.01    -0.01  -0.01   0.01
  33   1    -0.09   0.01   0.02     0.01  -0.01  -0.01     0.01  -0.00  -0.00
  34   1    -0.01   0.01   0.04    -0.00  -0.00  -0.01    -0.00  -0.02   0.01
  35   7     0.23  -0.14  -0.26    -0.06   0.02   0.04    -0.03  -0.00   0.01
  36   1     0.12  -0.06   0.03    -0.03   0.02  -0.01    -0.01   0.03  -0.03
  37   1     0.09  -0.09  -0.12    -0.02   0.02   0.02    -0.01   0.01  -0.01
  38   6     0.09   0.03   0.22     0.01   0.03  -0.02     0.16   0.10   0.07
  39   8     0.01  -0.12   0.13     0.04   0.12   0.05     0.27   0.19   0.17
  40   7     0.26   0.16   0.16    -0.08  -0.04   0.03    -0.05  -0.06   0.18
  41   1     0.08   0.03  -0.01    -0.01  -0.03   0.03    -0.04   0.02   0.11
  42   1     0.09   0.08   0.07    -0.02  -0.06  -0.01    -0.08  -0.01   0.01
  43   7     0.03   0.08   0.37     0.04   0.00  -0.11     0.21   0.13  -0.22
  44   1     0.01   0.04   0.11     0.00  -0.01  -0.04     0.02   0.00  -0.10
  45   1    -0.01   0.02   0.11     0.02   0.01  -0.04     0.09   0.05  -0.08
  46   6     0.00   0.00  -0.00     0.00   0.01  -0.01    -0.00   0.01   0.01
  47   8     0.00   0.01  -0.00     0.01   0.03  -0.01     0.00   0.02   0.01
  48   7     0.00   0.00  -0.00     0.01  -0.01  -0.02    -0.02   0.00   0.01
  49   1     0.00  -0.00  -0.00     0.01   0.01  -0.01    -0.01   0.00   0.01
  50   1     0.00  -0.00  -0.00     0.01  -0.00  -0.00    -0.01  -0.00  -0.00
  51   7    -0.00   0.00   0.00    -0.00  -0.00  -0.00    -0.01  -0.00   0.01
  52   1    -0.00  -0.00   0.00    -0.00  -0.00   0.00    -0.00   0.00   0.00
  53   1    -0.00  -0.00   0.00    -0.00   0.00  -0.00    -0.00   0.00   0.00
                     28                     29                     30
                        a                      a                      a 
 Frequencies --   277.4726               292.2344               301.6519
 Red. masses --     5.9562                 2.6641                 3.6020
 Frc consts  --     0.0000                 0.0000                 0.0000
 IR Inten    --     3.0352                56.7048               173.9249
 Raman Activ --     0.0000                 0.0000                 0.0000
 Depolar     --     0.0000                 0.0000                 0.0000
 Atom AN      X      Y      Z        X      Y      Z        X      Y      Z
   1   8    -0.23  -0.15  -0.23    -0.01   0.04   0.04     0.02   0.01  -0.00
   2   6     0.25   0.00  -0.05    -0.06   0.02   0.02     0.04   0.01   0.00
   3   1     0.19  -0.10  -0.08    -0.03   0.02   0.01     0.02  -0.00  -0.01
   4   1     0.15   0.12   0.08    -0.03  -0.01  -0.01     0.02   0.01   0.01
   5   6    -0.07   0.02  -0.02     0.01  -0.02   0.00    -0.01   0.00   0.01
   6   1    -0.02  -0.01   0.03     0.01  -0.01  -0.00    -0.00  -0.00   0.01
   7   1    -0.03   0.00  -0.02    -0.00  -0.01  -0.00    -0.01  -0.00  -0.00
   8   7    -0.08   0.01  -0.00     0.02  -0.01  -0.00    -0.02   0.00  -0.01
   9   6    -0.08   0.00   0.10     0.04  -0.01  -0.04    -0.02  -0.00  -0.01
  10   1     0.09  -0.01   0.19    -0.01   0.01  -0.04    -0.02   0.00  -0.01
  11   1    -0.22   0.00   0.05     0.05  -0.00  -0.02     0.01   0.00  -0.00
  12   1     0.06   0.02  -0.14    -0.00  -0.01   0.02    -0.01  -0.01   0.01
  13   6     0.10  -0.08  -0.05    -0.03   0.02   0.02     0.02   0.00  -0.01
  14   1    -0.02  -0.16  -0.01     0.01   0.05   0.00     0.03   0.04   0.02
  15   1    -0.03   0.08   0.01     0.01  -0.03  -0.01     0.03  -0.04  -0.03
  16   1     0.17  -0.01  -0.05    -0.05   0.00   0.02    -0.04  -0.00  -0.00
  17   6    -0.18   0.09   0.15     0.03  -0.03  -0.03    -0.03   0.01   0.01
  18   1    -0.07   0.29  -0.06     0.02  -0.08   0.02    -0.00   0.00   0.01
  19   1    -0.18  -0.01   0.31     0.04   0.00  -0.08    -0.01   0.00  -0.00
  20   1     0.08  -0.18  -0.09    -0.03   0.05   0.02    -0.01   0.01   0.01
  21   1    -0.13   0.03  -0.03    -0.01   0.02   0.02     0.01  -0.00  -0.00
  22   6     0.00   0.00   0.00     0.00   0.02   0.01     0.00   0.07   0.01
  23   8     0.00  -0.01   0.01     0.00   0.01   0.00     0.01  -0.01   0.01
  24   7    -0.01   0.01  -0.00     0.01  -0.00  -0.00    -0.01   0.07   0.01
  25   1    -0.00   0.01   0.00    -0.00   0.01   0.00     0.00  -0.01  -0.01
  26   1    -0.00   0.00   0.00     0.00   0.00  -0.00     0.02  -0.04  -0.02
  27   7     0.01  -0.02  -0.01     0.00  -0.10  -0.01     0.02  -0.36  -0.05
  28   1    -0.00   0.05  -0.00    -0.01   0.17   0.02    -0.05   0.65   0.05
  29   1     0.00   0.02   0.00    -0.02   0.11   0.02    -0.05   0.39   0.07
  30   6    -0.01  -0.01  -0.00    -0.00   0.00  -0.01    -0.02   0.02  -0.04
  31   8    -0.02  -0.02   0.00    -0.01  -0.01  -0.01    -0.03   0.02  -0.04
  32   7    -0.01  -0.00   0.01     0.01  -0.02   0.01    -0.02  -0.00   0.01
  33   1     0.00  -0.00  -0.00    -0.01   0.01  -0.01    -0.01  -0.01   0.01
  34   1    -0.00  -0.00   0.00    -0.01   0.04  -0.02     0.00  -0.00   0.01
  35   7     0.00  -0.01   0.01     0.03  -0.03   0.02     0.05  -0.12   0.08
  36   1     0.00   0.02  -0.02     0.01   0.05  -0.04     0.02   0.21  -0.17
  37   1    -0.00   0.01  -0.01     0.00   0.02  -0.03    -0.00   0.09  -0.11
  38   6     0.09   0.02   0.04     0.03  -0.06  -0.00    -0.01  -0.01   0.02
  39   8     0.14   0.04   0.07    -0.02  -0.02  -0.01    -0.00  -0.05   0.00
  40   7    -0.05   0.05   0.10    -0.14   0.27   0.04     0.06  -0.04  -0.01
  41   1     0.04  -0.09   0.04     0.23  -0.39  -0.05    -0.04   0.10  -0.00
  42   1     0.05  -0.13  -0.01     0.39  -0.61  -0.06    -0.08   0.17   0.02
  43   7     0.10   0.08  -0.11    -0.01   0.01   0.01    -0.03   0.01   0.04
  44   1    -0.02   0.04  -0.05    -0.11   0.17   0.02     0.04  -0.06   0.01
  45   1     0.04   0.04  -0.04    -0.05   0.06   0.00     0.01  -0.03   0.01
  46   6    -0.00  -0.01  -0.01     0.00   0.01   0.00    -0.01  -0.03  -0.01
  47   8    -0.00  -0.02  -0.01    -0.00   0.00   0.00     0.00  -0.00   0.00
  48   7     0.01  -0.00  -0.01    -0.01  -0.01   0.00     0.03   0.07   0.00
  49   1     0.00  -0.00  -0.00     0.00   0.01   0.00    -0.03  -0.07  -0.01
  50   1     0.01   0.00   0.00     0.01   0.02   0.00    -0.05  -0.13  -0.02
  51   7     0.00   0.01  -0.01    -0.00  -0.01   0.00     0.02   0.08   0.01
  52   1    -0.00  -0.00  -0.00     0.00   0.02   0.00    -0.04  -0.14  -0.03
  53   1    -0.00  -0.01  -0.00     0.00   0.01   0.00    -0.02  -0.08  -0.01
                     31                     32                     33
                        a                      a                      a 
 Frequencies --   312.1200               313.9579               327.8678
 Red. masses --     4.5286                 8.6173                 3.9032
 Frc consts  --     0.0000                 0.0000                 0.0000
 IR Inten    --   609.3518               135.7589                 1.0478
 Raman Activ --     0.0000                 0.0000                 0.0000
 Depolar     --     0.0000                 0.0000                 0.0000
 Atom AN      X      Y      Z        X      Y      Z        X      Y      Z
   1   8    -0.06   0.05  -0.17    -0.16   0.09  -0.37    -0.18  -0.06  -0.04
   2   6    -0.04   0.07  -0.01    -0.07   0.15  -0.04     0.27   0.04  -0.01
   3   1    -0.01   0.01   0.01     0.00   0.01  -0.00     0.17  -0.07  -0.06
   4   1    -0.01   0.02   0.00    -0.01   0.06   0.00     0.15   0.13   0.07
   5   6     0.01   0.04   0.01     0.01   0.06   0.01    -0.04  -0.03   0.01
   6   1     0.00   0.01   0.01     0.00   0.01   0.01    -0.02  -0.02   0.04
   7   1     0.01   0.01  -0.02     0.03   0.01  -0.04    -0.02  -0.01  -0.00
   8   7     0.02  -0.03   0.06     0.04  -0.09   0.12    -0.07  -0.02  -0.03
   9   6     0.15  -0.02  -0.03     0.31  -0.06  -0.05    -0.02  -0.01  -0.09
  10   1     0.03   0.03  -0.04     0.05   0.07  -0.10    -0.12   0.02  -0.19
  11   1     0.09  -0.02  -0.02     0.21  -0.04  -0.04     0.19  -0.00  -0.05
  12   1     0.04  -0.03   0.01     0.08  -0.07   0.06    -0.08  -0.02   0.14
  13   6    -0.17   0.00   0.10    -0.36  -0.00   0.21     0.13  -0.03  -0.06
  14   1    -0.08  -0.01  -0.02    -0.12   0.09  -0.01     0.24   0.30   0.11
  15   1    -0.07   0.01   0.07    -0.10  -0.06   0.11     0.24  -0.29  -0.18
  16   1    -0.04   0.00   0.04    -0.20  -0.01   0.10    -0.34  -0.03   0.01
  17   6     0.05  -0.08   0.03     0.10  -0.20   0.07    -0.19   0.04   0.18
  18   1    -0.00   0.00  -0.02    -0.00   0.01  -0.04     0.01  -0.07   0.15
  19   1     0.02  -0.03   0.06     0.03  -0.07   0.13    -0.04   0.03  -0.07
  20   1     0.03  -0.06  -0.01     0.07  -0.15  -0.03    -0.15   0.10   0.11
  21   1    -0.02   0.01  -0.04    -0.06   0.04  -0.09    -0.08   0.04  -0.03
  22   6     0.00   0.01  -0.00    -0.00   0.00  -0.01    -0.00   0.01  -0.00
  23   8     0.00  -0.01  -0.00    -0.00   0.02  -0.01    -0.00   0.02  -0.00
  24   7     0.00   0.02  -0.00     0.01  -0.00  -0.01    -0.01  -0.01  -0.00
  25   1     0.00  -0.00  -0.00     0.00   0.01  -0.00    -0.00   0.00   0.00
  26   1     0.01  -0.01  -0.00     0.00   0.00   0.00    -0.00  -0.00  -0.00
  27   7     0.00  -0.08  -0.02    -0.00   0.03  -0.00    -0.00   0.03   0.01
  28   1    -0.01   0.16   0.01     0.00  -0.06  -0.01     0.00  -0.07  -0.00
  29   1    -0.01   0.09   0.01     0.00  -0.03  -0.01     0.00  -0.03  -0.01
  30   6    -0.01   0.00  -0.01     0.00  -0.01   0.00     0.00  -0.01   0.00
  31   8    -0.01   0.00  -0.01     0.00  -0.01   0.01     0.00  -0.01   0.01
  32   7    -0.01   0.01  -0.00    -0.00   0.00  -0.00    -0.00   0.01  -0.00
  33   1     0.00  -0.01   0.01     0.00  -0.00   0.00     0.00  -0.01   0.01
  34   1     0.01  -0.02   0.01     0.00  -0.01   0.00     0.01  -0.03   0.01
  35   7     0.01  -0.03   0.03    -0.01   0.01  -0.01    -0.01   0.01  -0.01
  36   1     0.01   0.08  -0.06    -0.01  -0.02   0.01    -0.00  -0.01   0.01
  37   1    -0.00   0.02  -0.03    -0.00  -0.00   0.01    -0.00  -0.00   0.01
  38   6     0.01   0.00   0.02     0.04   0.02   0.03     0.03   0.02   0.03
  39   8     0.02  -0.01   0.02     0.06   0.03   0.05     0.05   0.01   0.03
  40   7     0.02  -0.03   0.02    -0.02  -0.02   0.06    -0.01  -0.02   0.05
  41   1    -0.02   0.04   0.01    -0.01  -0.00   0.03    -0.01   0.00   0.02
  42   1    -0.05   0.07   0.01    -0.02  -0.01   0.01    -0.03   0.01   0.01
  43   7     0.01   0.02  -0.01     0.05   0.03  -0.06     0.04   0.03  -0.05
  44   1     0.02  -0.03  -0.01    -0.00   0.00  -0.03    -0.00   0.00  -0.02
  45   1     0.02  -0.01  -0.01     0.02   0.02  -0.02     0.02   0.01  -0.02
  46   6     0.03   0.09   0.02    -0.01  -0.05  -0.00     0.00   0.00  -0.01
  47   8    -0.01  -0.00  -0.01     0.01  -0.01   0.01    -0.01  -0.02  -0.01
  48   7    -0.10  -0.24  -0.01     0.04   0.11   0.02    -0.01  -0.02  -0.01
  49   1     0.08   0.24   0.03    -0.04  -0.11  -0.01     0.01   0.02  -0.00
  50   1     0.18   0.44   0.07    -0.09  -0.20  -0.03     0.03   0.06   0.01
  51   7    -0.04  -0.25  -0.05     0.04   0.11   0.02    -0.01  -0.02  -0.01
  52   1     0.13   0.47   0.10    -0.06  -0.21  -0.05     0.02   0.06   0.01
  53   1     0.07   0.25   0.03    -0.02  -0.11  -0.02     0.00   0.02   0.00
                     34                     35                     36
                        a                      a                      a 
 Frequencies --   358.2644               366.9172               374.1087
 Red. masses --     5.0759                 2.3341                 4.8751
 Frc consts  --     0.0000                 0.0000                 0.0000
 IR Inten    --     1.5290                77.6939                 1.1090
 Raman Activ --     0.0000                 0.0000                 0.0000
 Depolar     --     0.0000                 0.0000                 0.0000
 Atom AN      X      Y      Z        X      Y      Z        X      Y      Z
   1   8     0.05   0.01   0.25    -0.02  -0.01  -0.04    -0.01   0.01  -0.06
   2   6    -0.16  -0.07   0.10     0.02   0.01   0.00     0.03   0.07   0.16
   3   1    -0.13   0.03   0.11     0.02  -0.01  -0.00    -0.01   0.01   0.10
   4   1    -0.11  -0.09  -0.07     0.01   0.01   0.01    -0.01   0.00   0.03
   5   6     0.20   0.21   0.05    -0.01   0.00   0.01     0.13   0.18   0.14
   6   1    -0.01   0.19  -0.04    -0.00  -0.00   0.01    -0.01   0.11   0.05
   7   1     0.19   0.10   0.09    -0.01  -0.00  -0.00     0.12   0.07   0.05
   8   7     0.06   0.02  -0.08    -0.02  -0.01   0.01    -0.01  -0.04   0.02
   9   6    -0.01   0.02  -0.23     0.02  -0.00  -0.00     0.13  -0.03  -0.33
  10   1    -0.06   0.03  -0.15     0.04   0.01   0.04     0.21   0.07   0.12
  11   1     0.09  -0.03  -0.09    -0.04  -0.01   0.00    -0.24  -0.12  -0.11
  12   1    -0.05   0.03   0.01     0.03  -0.00  -0.05     0.16   0.04  -0.39
  13   6    -0.02  -0.21  -0.17    -0.02   0.00   0.01    -0.09  -0.23  -0.05
  14   1     0.05   0.02  -0.01    -0.00   0.01   0.00    -0.05  -0.13  -0.02
  15   1     0.06  -0.20  -0.06    -0.00  -0.00  -0.00    -0.05  -0.06   0.04
  16   1    -0.16  -0.07  -0.10    -0.01  -0.00   0.01     0.01  -0.07  -0.08
  17   6    -0.03   0.05   0.09    -0.01  -0.01   0.01    -0.14   0.05   0.17
  18   1    -0.02   0.32  -0.09     0.00  -0.05   0.02     0.05  -0.17   0.21
  19   1    -0.16  -0.03   0.36     0.02   0.00  -0.05     0.01   0.04  -0.19
  20   1     0.11  -0.24  -0.12    -0.03   0.03   0.02    -0.21   0.20   0.17
  21   1     0.06  -0.04   0.03    -0.01   0.00  -0.01    -0.02   0.02  -0.02
  22   6    -0.01   0.00  -0.00    -0.00   0.03  -0.01    -0.00  -0.01   0.00
  23   8    -0.00  -0.00   0.00     0.00   0.02   0.01    -0.00  -0.01   0.01
  24   7     0.00  -0.00  -0.00     0.02  -0.02   0.00    -0.01   0.00   0.00
  25   1     0.01   0.01  -0.00     0.00  -0.00   0.00     0.00   0.00  -0.00
  26   1     0.00  -0.01   0.00    -0.00   0.01  -0.00     0.00  -0.01   0.00
  27   7     0.00  -0.01  -0.01     0.00  -0.12  -0.01     0.00   0.02  -0.00
  28   1    -0.00   0.02  -0.00    -0.02   0.22   0.02     0.00  -0.02  -0.00
  29   1    -0.00   0.01   0.00    -0.02   0.12   0.02     0.00  -0.01  -0.00
  30   6    -0.00   0.00   0.00    -0.03   0.03   0.03     0.00  -0.00  -0.00
  31   8     0.00   0.00   0.00    -0.03   0.01   0.02    -0.00  -0.00  -0.00
  32   7     0.01  -0.02   0.01     0.05  -0.14   0.05    -0.00   0.01  -0.00
  33   1    -0.00   0.01  -0.01    -0.03   0.04  -0.03     0.00   0.00  -0.00
  34   1    -0.01   0.05  -0.02    -0.13   0.47  -0.24     0.01  -0.05   0.02
  35   7     0.00   0.02  -0.01     0.03   0.16  -0.15    -0.00  -0.01   0.01
  36   1    -0.00  -0.05   0.04     0.01  -0.54   0.44    -0.00   0.05  -0.04
  37   1     0.00  -0.01   0.01     0.02  -0.08   0.13    -0.00   0.01  -0.01
  38   6    -0.01  -0.00  -0.01     0.02  -0.01  -0.01    -0.00  -0.00   0.00
  39   8    -0.02   0.01  -0.01     0.03  -0.01  -0.01     0.00  -0.01   0.00
  40   7    -0.01   0.00  -0.01    -0.03  -0.01   0.00     0.01  -0.00  -0.00
  41   1     0.00  -0.00  -0.01    -0.02   0.01   0.02     0.00   0.00  -0.00
  42   1     0.02  -0.02  -0.01    -0.04   0.03  -0.00    -0.01   0.02   0.00
  43   7    -0.01  -0.01   0.02     0.01   0.01  -0.01    -0.00   0.00  -0.00
  44   1    -0.00   0.00   0.01     0.03  -0.03  -0.00     0.00  -0.01  -0.00
  45   1    -0.01  -0.00   0.01     0.00  -0.00   0.00     0.00  -0.00  -0.00
  46   6     0.00  -0.01   0.00     0.00   0.00  -0.00    -0.01   0.00  -0.01
  47   8    -0.00  -0.02   0.00    -0.00   0.00  -0.00    -0.00   0.00  -0.00
  48   7    -0.01  -0.00   0.01    -0.00  -0.01  -0.00     0.02   0.01  -0.01
  49   1    -0.00   0.00   0.00     0.00   0.01  -0.00     0.00  -0.01  -0.01
  50   1     0.00   0.02   0.00     0.01   0.02   0.00    -0.00  -0.03  -0.00
  51   7     0.01  -0.01  -0.00    -0.00  -0.01  -0.00    -0.01   0.01   0.00
  52   1     0.01   0.01   0.00     0.00   0.02   0.00    -0.01  -0.02  -0.00
  53   1     0.00   0.00  -0.00     0.00   0.01   0.00    -0.01  -0.00  -0.00
                     37                     38                     39
                        a                      a                      a 
 Frequencies --   383.5860               411.9704               427.9581
 Red. masses --     2.5809                 3.8372                 8.5713
 Frc consts  --     0.0000                 0.0000                 0.0000
 IR Inten    --     0.7367               133.0187                 0.0687
 Raman Activ --     0.0000                 0.0000                 0.0000
 Depolar     --     0.0000                 0.0000                 0.0000
 Atom AN      X      Y      Z        X      Y      Z        X      Y      Z
   1   8     0.10   0.00  -0.00    -0.01  -0.00   0.01    -0.01   0.08  -0.21
   2   6    -0.05  -0.03  -0.05     0.01  -0.00  -0.00    -0.11   0.11   0.08
   3   1    -0.03   0.02  -0.02     0.01  -0.00  -0.00    -0.04   0.03   0.04
   4   1    -0.02  -0.04  -0.02     0.00   0.00   0.00    -0.05  -0.00   0.01
   5   6    -0.03  -0.00  -0.04    -0.00   0.00  -0.00     0.04  -0.08   0.10
   6   1     0.01  -0.02  -0.04    -0.00   0.01  -0.00     0.02  -0.04   0.04
   7   1    -0.04  -0.00   0.00     0.00   0.00   0.00     0.01  -0.03  -0.04
   8   7     0.01   0.08  -0.01    -0.01   0.00  -0.01     0.10  -0.23   0.22
   9   6    -0.03   0.07   0.20     0.01   0.00   0.00    -0.21  -0.26  -0.18
  10   1     0.20  -0.01   0.36    -0.00   0.00  -0.00    -0.06  -0.08  -0.05
  11   1    -0.38   0.04   0.11     0.01   0.00   0.00    -0.13  -0.18  -0.09
  12   1     0.14   0.03  -0.25     0.00  -0.00   0.01    -0.08   0.05  -0.12
  13   6    -0.09   0.06  -0.00    -0.00   0.00  -0.01     0.17  -0.02   0.31
  14   1     0.13   0.32   0.07     0.00   0.00  -0.00     0.10   0.10   0.11
  15   1     0.15  -0.26  -0.10     0.00   0.00  -0.01     0.10  -0.04   0.00
  16   1    -0.40  -0.00   0.04    -0.00   0.00  -0.00    -0.04  -0.01   0.15
  17   6     0.16  -0.14  -0.09    -0.01  -0.01   0.01     0.06   0.33  -0.24
  18   1     0.00  -0.02  -0.08    -0.00  -0.01   0.01    -0.03   0.20  -0.15
  19   1     0.09  -0.05   0.05     0.00  -0.00   0.00    -0.15   0.08  -0.10
  20   1     0.08  -0.12  -0.07    -0.01  -0.01   0.00     0.20   0.16  -0.08
  21   1     0.01  -0.01   0.04    -0.00  -0.00   0.00    -0.01   0.03  -0.05
  22   6    -0.00   0.00   0.01    -0.02   0.01   0.01    -0.00   0.00   0.00
  23   8    -0.00   0.01   0.01    -0.02   0.01  -0.00    -0.00   0.00  -0.00
  24   7    -0.01  -0.00   0.00     0.03  -0.04   0.01     0.00  -0.00   0.00
  25   1    -0.00   0.00   0.00    -0.01  -0.02   0.01    -0.00  -0.01   0.00
  26   1     0.00  -0.01  -0.00    -0.06   0.13   0.02    -0.01   0.02  -0.00
  27   7     0.01   0.01   0.00     0.03   0.07  -0.02     0.00   0.00  -0.00
  28   1     0.00  -0.02  -0.00     0.02  -0.24  -0.03     0.00  -0.02  -0.00
  29   1     0.00  -0.00   0.00     0.01  -0.01  -0.01     0.00   0.01   0.00
  30   6     0.00   0.00  -0.00    -0.05   0.10  -0.03    -0.00   0.00  -0.00
  31   8    -0.00   0.00  -0.00    -0.08   0.11  -0.06    -0.00   0.00  -0.00
  32   7    -0.00   0.00  -0.00     0.09  -0.27   0.07     0.00  -0.00   0.00
  33   1     0.00   0.01  -0.01    -0.03   0.02  -0.03     0.00   0.00  -0.00
  34   1     0.00  -0.02   0.01    -0.14   0.57  -0.29    -0.00   0.01  -0.01
  35   7     0.00  -0.01   0.01     0.04  -0.17   0.19    -0.00  -0.00   0.00
  36   1     0.00   0.03  -0.02     0.06   0.37  -0.23     0.00   0.00  -0.00
  37   1     0.00  -0.00  -0.01     0.03  -0.02  -0.08     0.00  -0.00  -0.00
  38   6    -0.02  -0.01  -0.02     0.05  -0.06  -0.00     0.01  -0.01   0.01
  39   8    -0.01  -0.01  -0.01     0.04  -0.03  -0.00     0.00  -0.00   0.01
  40   7     0.01   0.01  -0.03    -0.04   0.04   0.01    -0.00   0.00   0.01
  41   1     0.00  -0.00  -0.01    -0.00  -0.01   0.01     0.00  -0.00   0.00
  42   1     0.01   0.01  -0.00    -0.02   0.00  -0.00    -0.00   0.01   0.00
  43   7    -0.02  -0.01   0.02    -0.04   0.08   0.02    -0.00   0.01  -0.01
  44   1     0.00  -0.00   0.01     0.14  -0.21  -0.01     0.02  -0.03  -0.01
  45   1    -0.01  -0.01   0.01     0.02  -0.03   0.01     0.01   0.00  -0.00
  46   6    -0.00  -0.00  -0.01     0.00   0.00   0.00     0.01  -0.01  -0.00
  47   8    -0.01  -0.01  -0.01    -0.00   0.00   0.00     0.01  -0.01  -0.01
  48   7    -0.00  -0.01  -0.00    -0.00  -0.00   0.00    -0.02   0.01  -0.00
  49   1    -0.00  -0.00  -0.00     0.00   0.00   0.00    -0.01  -0.01   0.01
  50   1     0.02   0.04   0.01    -0.00  -0.01  -0.00    -0.00   0.02  -0.01
  51   7    -0.01  -0.01   0.00     0.00  -0.00  -0.00     0.00  -0.01   0.02
  52   1     0.00   0.02   0.01     0.00   0.01  -0.00     0.01   0.00   0.01
  53   1    -0.00   0.01   0.00     0.00  -0.00  -0.00    -0.01   0.01   0.01
                     40                     41                     42
                        a                      a                      a 
 Frequencies --   444.8482               445.6966               454.6589
 Red. masses --     3.3245                 1.6313                 8.1654
 Frc consts  --     0.0000                 0.0000                 0.0000
 IR Inten    --   267.5807                 4.4374                 5.5032
 Raman Activ --     0.0000                 0.0000                 0.0000
 Depolar     --     0.0000                 0.0000                 0.0000
 Atom AN      X      Y      Z        X      Y      Z        X      Y      Z
   1   8    -0.00   0.01  -0.01     0.00   0.00   0.01     0.01   0.01   0.03
   2   6     0.01   0.00  -0.01     0.01  -0.00  -0.01     0.04  -0.02  -0.10
   3   1     0.00  -0.00  -0.00    -0.00  -0.00   0.00    -0.00   0.00  -0.02
   4   1     0.00   0.01  -0.00     0.00   0.00  -0.01     0.00  -0.00  -0.06
   5   6     0.01   0.00  -0.00     0.02   0.01  -0.01     0.13  -0.01  -0.09
   6   1     0.00   0.00   0.00    -0.00   0.01  -0.01     0.02   0.03  -0.04
   7   1     0.01   0.00  -0.00     0.02   0.01   0.00     0.07   0.01  -0.01
   8   7     0.00  -0.01   0.01     0.01  -0.02  -0.01     0.10  -0.08  -0.04
   9   6    -0.01  -0.01  -0.00    -0.00  -0.02   0.01    -0.07  -0.10   0.05
  10   1     0.00  -0.00   0.00    -0.00  -0.01   0.00    -0.02  -0.07   0.03
  11   1    -0.01  -0.01  -0.00     0.00  -0.00   0.00    -0.05  -0.01   0.03
  12   1    -0.00   0.00  -0.01    -0.00  -0.01   0.01    -0.03   0.00   0.01
  13   6    -0.00   0.00   0.01    -0.01   0.02   0.00    -0.10   0.08   0.04
  14   1     0.00   0.01   0.00    -0.01   0.01  -0.01    -0.05   0.06  -0.04
  15   1     0.00  -0.00   0.00    -0.01   0.02   0.00    -0.04   0.02   0.03
  16   1    -0.01   0.00   0.01     0.01   0.01   0.01    -0.05   0.02   0.06
  17   6    -0.00   0.01   0.00    -0.02   0.01   0.01    -0.03   0.08   0.07
  18   1     0.00   0.00   0.00     0.00   0.00   0.01     0.03   0.04   0.06
  19   1    -0.01   0.00  -0.00    -0.01   0.00  -0.00    -0.06   0.02  -0.00
  20   1     0.00   0.01   0.00    -0.01   0.01   0.01    -0.03   0.05   0.04
  21   1     0.01  -0.01  -0.01     0.00  -0.00  -0.00     0.00  -0.00   0.01
  22   6    -0.03   0.01   0.01    -0.00  -0.00   0.00    -0.01  -0.00   0.00
  23   8    -0.03  -0.00   0.00    -0.01  -0.00   0.00    -0.01  -0.01  -0.01
  24   7     0.03   0.01   0.04     0.00   0.00   0.01    -0.00   0.00   0.02
  25   1     0.02  -0.08  -0.01     0.00  -0.01  -0.00     0.02   0.06   0.00
  26   1    -0.02   0.07   0.01    -0.00   0.01   0.00     0.04  -0.09   0.02
  27   7     0.02  -0.01  -0.03     0.00  -0.00  -0.01     0.01   0.02  -0.01
  28   1     0.01  -0.04  -0.03     0.00  -0.01  -0.01    -0.00   0.05  -0.02
  29   1     0.02   0.03   0.00     0.00   0.01   0.00     0.04  -0.07  -0.00
  30   6    -0.04   0.02   0.03    -0.01   0.00   0.00     0.02  -0.01  -0.01
  31   8    -0.04   0.04   0.03    -0.01   0.01   0.00     0.01  -0.01  -0.02
  32   7     0.01  -0.10  -0.06     0.00  -0.02  -0.01     0.01   0.01   0.03
  33   1     0.03  -0.06   0.01     0.00  -0.01   0.00    -0.02   0.01   0.01
  34   1    -0.06   0.15  -0.12    -0.01   0.02  -0.02     0.01   0.03   0.01
  35   7     0.07  -0.02   0.04     0.01  -0.00   0.01    -0.03  -0.01   0.00
  36   1     0.07   0.12  -0.03     0.01   0.02  -0.01    -0.02  -0.00  -0.02
  37   1     0.05  -0.06  -0.03     0.01  -0.01  -0.00    -0.02   0.02   0.01
  38   6    -0.08   0.14   0.01    -0.01   0.02   0.00    -0.00  -0.00  -0.00
  39   8    -0.03   0.05  -0.01    -0.00   0.01  -0.00     0.00   0.00   0.00
  40   7     0.08  -0.17  -0.01     0.01  -0.02  -0.00     0.00   0.00  -0.01
  41   1    -0.04   0.06   0.02    -0.01   0.01   0.00    -0.00   0.00  -0.00
  42   1    -0.07   0.09   0.01    -0.01   0.01   0.00     0.01  -0.01  -0.00
  43   7     0.17  -0.23  -0.01     0.02  -0.03  -0.00    -0.01   0.00   0.01
  44   1    -0.44   0.70   0.06    -0.06   0.09   0.01     0.00  -0.01   0.00
  45   1    -0.04   0.02   0.01    -0.00   0.00   0.00    -0.00  -0.00   0.00
  46   6     0.00  -0.00  -0.00    -0.05   0.01   0.04    -0.23   0.05   0.16
  47   8     0.00  -0.00  -0.00    -0.06   0.02   0.04    -0.25   0.06   0.17
  48   7    -0.01  -0.01  -0.00     0.09   0.07   0.05     0.30  -0.17   0.13
  49   1     0.02   0.07   0.02    -0.09  -0.47  -0.14     0.23   0.09  -0.14
  50   1    -0.03  -0.05  -0.02     0.24   0.38   0.15     0.14  -0.21   0.19
  51   7     0.01   0.01   0.00    -0.04  -0.08  -0.08     0.03   0.10  -0.36
  52   1     0.02   0.06   0.02    -0.17  -0.39  -0.20    -0.07   0.19  -0.24
  53   1    -0.03  -0.06  -0.01     0.25   0.43   0.04     0.18  -0.17  -0.14
                     43                     44                     45
                        a                      a                      a 
 Frequencies --   456.4657               465.2047               466.7767
 Red. masses --     3.7346                 8.1150                 6.8537
 Frc consts  --     0.0000                 0.0000                 0.0000
 IR Inten    --    13.8637                11.9446                42.1825
 Raman Activ --     0.0000                 0.0000                 0.0000
 Depolar     --     0.0000                 0.0000                 0.0000
 Atom AN      X      Y      Z        X      Y      Z        X      Y      Z
   1   8    -0.00  -0.00  -0.00     0.00   0.00   0.02    -0.01  -0.00   0.03
   2   6     0.00  -0.00  -0.02    -0.00  -0.01   0.02     0.04  -0.03  -0.10
   3   1    -0.00   0.00  -0.00    -0.01  -0.00   0.02     0.01  -0.01  -0.03
   4   1    -0.00  -0.00  -0.01    -0.01  -0.01  -0.01     0.01   0.01  -0.04
   5   6     0.01  -0.03  -0.01     0.04   0.09   0.01     0.09  -0.03  -0.09
   6   1     0.02  -0.04  -0.00    -0.04   0.11  -0.01     0.02   0.01  -0.04
   7   1    -0.03  -0.02  -0.01     0.11   0.05   0.03     0.04  -0.00  -0.01
   8   7     0.05   0.05   0.02    -0.09  -0.13  -0.07     0.09  -0.02  -0.01
   9   6    -0.05   0.05  -0.02     0.10  -0.13   0.06    -0.08  -0.04   0.03
  10   1    -0.02  -0.00  -0.01     0.05  -0.01   0.04    -0.03  -0.05   0.01
  11   1    -0.02   0.00  -0.01     0.03   0.01   0.04    -0.04  -0.00   0.01
  12   1    -0.02   0.04  -0.00     0.05  -0.09   0.01    -0.04   0.02   0.01
  13   6    -0.03  -0.05  -0.01     0.04   0.14   0.01    -0.10   0.03   0.04
  14   1    -0.02  -0.02  -0.01     0.03   0.07   0.01    -0.05   0.03  -0.03
  15   1    -0.01  -0.03   0.03     0.02   0.08  -0.05    -0.05   0.00   0.05
  16   1    -0.02  -0.01  -0.03     0.03   0.04   0.08    -0.05   0.01   0.03
  17   6     0.06   0.02   0.05    -0.15  -0.03  -0.08     0.00   0.07   0.11
  18   1     0.02  -0.00   0.02    -0.03   0.01  -0.02     0.03   0.02   0.06
  19   1     0.03   0.01   0.01    -0.07  -0.01  -0.03    -0.03   0.02   0.01
  20   1     0.01  -0.00   0.01    -0.03   0.00  -0.02    -0.03   0.04   0.05
  21   1    -0.00   0.00  -0.00     0.00  -0.00   0.01    -0.01   0.00   0.02
  22   6    -0.05  -0.02   0.01     0.18   0.02  -0.06    -0.16  -0.01   0.06
  23   8    -0.07   0.02   0.03     0.21   0.00   0.08    -0.19  -0.01  -0.11
  24   7     0.13  -0.03   0.05    -0.16   0.01  -0.22     0.10  -0.02   0.22
  25   1    -0.04  -0.32  -0.01    -0.10   0.07  -0.00     0.13   0.07   0.00
  26   1    -0.22   0.53  -0.00     0.02  -0.14  -0.14     0.10  -0.15   0.15
  27   7     0.04  -0.10  -0.09    -0.14  -0.01   0.18     0.12   0.06  -0.14
  28   1     0.02  -0.20  -0.03    -0.02  -0.03   0.23     0.00   0.23  -0.23
  29   1    -0.07   0.35   0.03    -0.22   0.02  -0.02     0.29  -0.28   0.00
  30   6    -0.12   0.04   0.07    -0.11   0.02   0.07    -0.12   0.03   0.07
  31   8    -0.07   0.05   0.14    -0.05   0.09   0.14    -0.06   0.08   0.15
  32   7    -0.07  -0.03  -0.19    -0.05  -0.11  -0.15    -0.05  -0.09  -0.18
  33   1     0.10  -0.04  -0.06     0.07   0.00  -0.09     0.08  -0.03  -0.08
  34   1    -0.03  -0.26  -0.01    -0.06  -0.13  -0.07    -0.06  -0.13  -0.07
  35   7     0.18   0.06  -0.02     0.15   0.06  -0.03     0.18   0.04  -0.00
  36   1     0.13  -0.02   0.13     0.15   0.12   0.06     0.15   0.08   0.08
  37   1     0.10  -0.10  -0.06     0.13  -0.21  -0.02     0.11  -0.11  -0.08
  38   6     0.01  -0.01   0.01     0.09   0.05  -0.10     0.04   0.02  -0.08
  39   8     0.00  -0.01  -0.00     0.03   0.03  -0.14     0.03   0.03  -0.09
  40   7    -0.02   0.02   0.02    -0.15  -0.08   0.01    -0.11  -0.04  -0.02
  41   1    -0.00   0.00   0.01    -0.04  -0.06   0.12    -0.03  -0.03   0.07
  42   1     0.01  -0.02  -0.00    -0.13  -0.06  -0.07    -0.06  -0.07  -0.05
  43   7    -0.01   0.04  -0.01     0.06   0.04   0.17     0.01   0.03   0.12
  44   1     0.07  -0.11  -0.02     0.09   0.01   0.09     0.11  -0.06   0.07
  45   1     0.00   0.02  -0.01    -0.04  -0.02   0.08    -0.04  -0.02   0.06
  46   6    -0.04   0.01   0.03    -0.00  -0.00   0.00     0.05  -0.01  -0.04
  47   8    -0.04   0.01   0.03    -0.00  -0.00   0.00     0.06  -0.02  -0.04
  48   7     0.05  -0.03   0.02     0.00  -0.01   0.00    -0.06   0.04  -0.04
  49   1     0.04   0.01  -0.03     0.01   0.01  -0.00    -0.05  -0.01   0.03
  50   1     0.03  -0.03   0.03    -0.00  -0.01   0.00    -0.04   0.04  -0.05
  51   7     0.00   0.02  -0.06     0.00   0.01  -0.01    -0.00  -0.02   0.08
  52   1    -0.01   0.03  -0.04     0.00   0.01  -0.00     0.02  -0.04   0.06
  53   1     0.03  -0.03  -0.02    -0.00  -0.01  -0.00    -0.04   0.03   0.03
                     46                     47                     48
                        a                      a                      a 
 Frequencies --   468.4199               475.8535               488.5334
 Red. masses --     7.5810                 8.2771                 3.3526
 Frc consts  --     0.0000                 0.0000                 0.0000
 IR Inten    --    21.4800                27.0070                28.9980
 Raman Activ --     0.0000                 0.0000                 0.0000
 Depolar     --     0.0000                 0.0000                 0.0000
 Atom AN      X      Y      Z        X      Y      Z        X      Y      Z
   1   8    -0.03  -0.01  -0.10    -0.02   0.00   0.01     0.01   0.00   0.01
   2   6    -0.08   0.05   0.16     0.06  -0.04  -0.18     0.00   0.00   0.00
   3   1     0.00   0.00   0.01     0.01  -0.00  -0.05    -0.00   0.00   0.00
   4   1    -0.00   0.01   0.09     0.01   0.01  -0.08    -0.00  -0.00   0.00
   5   6    -0.23  -0.10   0.14     0.13  -0.17  -0.15    -0.00   0.00   0.00
   6   1     0.02  -0.18   0.08     0.09  -0.13  -0.04    -0.00   0.00  -0.00
   7   1    -0.23  -0.07  -0.03    -0.07  -0.07  -0.07     0.00   0.00   0.00
   8   7    -0.04   0.23   0.15     0.27   0.11   0.04    -0.01  -0.00  -0.00
   9   6    -0.02   0.25  -0.16    -0.28   0.08  -0.03     0.01  -0.00   0.00
  10   1    -0.03   0.11  -0.10    -0.13  -0.09  -0.03     0.00   0.00  -0.00
  11   1     0.04  -0.01  -0.09    -0.12  -0.01  -0.02     0.01   0.00   0.00
  12   1    -0.02   0.09  -0.04    -0.14   0.14   0.00     0.00  -0.00   0.00
  13   6     0.13  -0.26  -0.06    -0.26  -0.12   0.04     0.00   0.01  -0.00
  14   1     0.06  -0.15   0.06    -0.14  -0.04  -0.08     0.00   0.00   0.00
  15   1     0.06  -0.13  -0.01    -0.11  -0.09   0.15     0.00   0.00  -0.00
  16   1     0.03  -0.08  -0.17    -0.12  -0.04  -0.05     0.00   0.00   0.00
  17   6     0.22  -0.06  -0.07     0.18   0.16   0.27    -0.01  -0.00  -0.01
  18   1    -0.01  -0.06  -0.09     0.09   0.03   0.13    -0.00  -0.00  -0.00
  19   1     0.16  -0.02   0.02     0.03   0.05   0.05    -0.00  -0.00  -0.00
  20   1     0.11  -0.07  -0.05    -0.02   0.06   0.10    -0.00  -0.00  -0.00
  21   1    -0.01   0.01  -0.03    -0.01  -0.00   0.02     0.00  -0.00   0.00
  22   6     0.03   0.02   0.00     0.12   0.02  -0.04    -0.03   0.00  -0.00
  23   8     0.03   0.01  -0.02     0.15   0.00   0.07    -0.03  -0.00  -0.00
  24   7    -0.05  -0.00  -0.02    -0.09   0.02  -0.16     0.03  -0.01   0.02
  25   1    -0.00   0.09   0.01    -0.07   0.06   0.00     0.02   0.03   0.00
  26   1     0.07  -0.17  -0.01     0.01  -0.07  -0.09     0.01  -0.01   0.02
  27   7    -0.01   0.03   0.05    -0.08  -0.02   0.11     0.01  -0.03  -0.03
  28   1    -0.01   0.08   0.02    -0.01  -0.06   0.16    -0.00   0.08  -0.02
  29   1     0.02  -0.13  -0.01    -0.17   0.09  -0.01     0.02   0.03   0.01
  30   6    -0.05   0.01   0.03     0.02  -0.01  -0.02     0.00   0.03  -0.07
  31   8    -0.02   0.05   0.07     0.02   0.00  -0.02     0.10   0.07   0.01
  32   7    -0.02  -0.06  -0.07     0.01  -0.00   0.05    -0.02  -0.08   0.13
  33   1     0.03  -0.01  -0.04    -0.03   0.01   0.01    -0.06   0.06  -0.02
  34   1    -0.03  -0.03  -0.04     0.01   0.05   0.01     0.03  -0.03   0.07
  35   7     0.07   0.02  -0.01    -0.04  -0.00  -0.02    -0.14   0.11  -0.16
  36   1     0.07   0.07   0.02    -0.01   0.03  -0.03     0.07   0.21  -0.06
[...]
  44   1    -0.00  -0.00   0.01     0.00   0.00  -0.00    -0.01  -0.01   0.02
  45   1    -0.02  -0.02  -0.07     0.02   0.01   0.07     0.00   0.00   0.01
  46   6     0.00  -0.00  -0.00     0.00  -0.00   0.00     0.00  -0.00  -0.00
  47   8    -0.00   0.00   0.00    -0.00   0.00  -0.00    -0.00   0.00   0.00
  48   7    -0.00   0.00   0.00     0.00  -0.00   0.00    -0.00   0.00  -0.00
  49   1     0.00  -0.00   0.00    -0.00   0.00  -0.00     0.00  -0.00   0.00
  50   1    -0.00  -0.00   0.00     0.00  -0.00  -0.00    -0.00   0.00   0.00
  51   7    -0.00   0.00  -0.00    -0.00  -0.00   0.00    -0.00   0.00  -0.00
  52   1    -0.00  -0.00  -0.00    -0.00   0.00   0.00     0.00  -0.00  -0.00
  53   1     0.00  -0.00   0.00    -0.00   0.00  -0.00     0.00  -0.00   0.00
                    142                    143                    144
                        a                      a                      a 
 Frequencies --  3483.2110              3488.8594              3495.9927
 Red. masses --     1.8854                 1.4537                 1.4498
 Frc consts  --     0.0000                 0.0000                 0.0000
 IR Inten    --     4.9992                15.2349                23.5505
 Raman Activ --     0.0000                 0.0000                 0.0000
 Depolar     --     0.0000                 0.0000                 0.0000
 Atom AN      X      Y      Z        X      Y      Z        X      Y      Z
   1   8    -0.00  -0.00  -0.00    -0.00  -0.00  -0.00     0.00   0.00   0.00
   2   6     0.00  -0.00   0.00    -0.00   0.00   0.00    -0.00  -0.00  -0.00
   3   1    -0.00  -0.00   0.00    -0.00  -0.00  -0.00     0.00   0.00   0.00
   4   1     0.00   0.00   0.00     0.00  -0.00  -0.00    -0.00  -0.00  -0.00
   5   6     0.00   0.00  -0.00    -0.00  -0.00  -0.00     0.00   0.00   0.00
   6   1    -0.00  -0.00  -0.00     0.00   0.00   0.00    -0.00  -0.00  -0.00
   7   1     0.00  -0.00   0.00    -0.00  -0.00  -0.00    -0.00   0.00  -0.00
   8   7     0.00   0.00  -0.00     0.00   0.00   0.00    -0.00  -0.00  -0.00
   9   6    -0.00  -0.00  -0.00    -0.00  -0.00  -0.00     0.00   0.00   0.00
  10   1     0.00   0.00   0.00     0.00  -0.00  -0.00     0.00  -0.00   0.00
  11   1     0.00   0.00   0.00    -0.00   0.00  -0.00     0.00  -0.00   0.00
  12   1    -0.00   0.00  -0.00     0.00   0.00   0.00    -0.00  -0.00  -0.00
  13   6    -0.00  -0.00  -0.00    -0.00  -0.00  -0.00     0.00   0.00   0.00
  14   1     0.00  -0.00   0.00     0.00  -0.00  -0.00     0.00   0.00   0.00
  15   1     0.00   0.00   0.00     0.00   0.00   0.00    -0.00  -0.00  -0.00
  16   1     0.00  -0.00   0.00    -0.00  -0.00  -0.00     0.00   0.00   0.00
  17   6     0.00   0.00  -0.00    -0.00   0.00   0.00     0.00  -0.00  -0.00
  18   1     0.00  -0.00  -0.00     0.00  -0.00  -0.00    -0.00   0.00   0.00
  19   1    -0.00  -0.00   0.00    -0.00  -0.00  -0.00    -0.00   0.00   0.00
  20   1    -0.00  -0.00   0.00     0.00  -0.00   0.00    -0.00   0.00  -0.00
  21   1     0.01   0.01   0.00     0.00   0.00   0.00    -0.00  -0.00  -0.00
  22   6     0.01   0.00   0.00    -0.00   0.00  -0.00    -0.00   0.00  -0.00
  23   8    -0.00  -0.00  -0.00     0.00  -0.00  -0.00     0.00   0.00  -0.00
  24   7     0.23   0.09   0.02    -0.01  -0.01  -0.00    -0.02  -0.01   0.00
  25   1    -0.07   0.04  -0.12     0.00  -0.00   0.01     0.00  -0.00   0.01
  26   1    -0.81  -0.38   0.04     0.05   0.02  -0.00     0.09   0.04  -0.00
  27   7    -0.02   0.00  -0.01    -0.01   0.00  -0.01    -0.11   0.02  -0.14
  28   1     0.09   0.01  -0.01     0.03   0.00  -0.00     0.70   0.06  -0.08
  29   1    -0.02  -0.01   0.04    -0.01  -0.01   0.03    -0.27  -0.13   0.60
  30   6    -0.00   0.00   0.00    -0.00   0.00   0.00     0.00   0.00  -0.00
  31   8     0.00  -0.00  -0.00     0.00  -0.00  -0.00    -0.00  -0.00   0.00
  32   7     0.00   0.00   0.00     0.00  -0.00  -0.01    -0.00   0.00   0.00
  33   1    -0.00  -0.01  -0.02     0.00   0.01   0.01    -0.00   0.00  -0.00
  34   1    -0.01   0.00   0.01    -0.02   0.00   0.01     0.00  -0.00  -0.00
  35   7     0.00   0.01   0.01     0.03   0.13   0.12    -0.00  -0.01  -0.01
  36   1     0.02  -0.01  -0.02     0.52  -0.29  -0.35    -0.03   0.02   0.02
  37   1    -0.03  -0.01  -0.00    -0.65  -0.22  -0.10     0.04   0.01   0.01
  38   6    -0.00  -0.00   0.00     0.00   0.00   0.00     0.00   0.00  -0.00
  39   8    -0.00   0.00  -0.00    -0.00  -0.00  -0.00     0.00  -0.00   0.00
  40   7    -0.04  -0.01  -0.04     0.00   0.00   0.00     0.00   0.00   0.00
  41   1     0.22   0.12   0.03    -0.00  -0.00  -0.00    -0.00  -0.00  -0.00
  42   1    -0.08  -0.07   0.13     0.00   0.00  -0.00     0.00   0.00  -0.00
  43   7     0.00   0.00   0.00    -0.00  -0.00  -0.00    -0.00  -0.00   0.00
  44   1     0.00   0.00  -0.00     0.00   0.00  -0.00     0.00   0.00  -0.00
  45   1    -0.01  -0.00  -0.01     0.00   0.00   0.01     0.00   0.00  -0.00
  46   6     0.00   0.00   0.00     0.00  -0.00  -0.00    -0.00   0.00   0.00
  47   8    -0.00  -0.00  -0.00    -0.00   0.00   0.00     0.00  -0.00  -0.00
  48   7     0.00  -0.00   0.00     0.00  -0.00   0.00     0.00  -0.00   0.00
  49   1    -0.00   0.00  -0.00    -0.00   0.00  -0.00    -0.00   0.00  -0.00
  50   1     0.00  -0.00  -0.00     0.00  -0.00  -0.00     0.00  -0.00  -0.00
  51   7    -0.00   0.00  -0.00    -0.00   0.00  -0.00     0.00  -0.00   0.00
  52   1     0.00  -0.00  -0.00     0.00  -0.00  -0.00    -0.00   0.00   0.00
  53   1    -0.00  -0.00   0.00     0.00  -0.00   0.00    -0.00   0.00  -0.00
                    145                    146                    147
                        a                      a                      a 
 Frequencies --  3501.4036              3505.7761              3532.9780
 Red. masses --     1.4380                 1.4623                 1.9229
 Frc consts  --     0.0000                 0.0000                 0.0000
 IR Inten    --    39.8069                 8.6163                28.4198
 Raman Activ --     0.0000                 0.0000                 0.0000
 Depolar     --     0.0000                 0.0000                 0.0000
 Atom AN      X      Y      Z        X      Y      Z        X      Y      Z
   1   8     0.00  -0.00   0.00     0.00   0.00  -0.00     0.00   0.00   0.00
   2   6    -0.00   0.00  -0.00     0.00   0.00   0.00     0.00  -0.00   0.00
   3   1     0.00   0.00   0.00    -0.00  -0.00  -0.00     0.00   0.00   0.00
   4   1     0.00  -0.00  -0.00     0.00  -0.00  -0.00    -0.00   0.00  -0.00
   5   6     0.00   0.00   0.00     0.00   0.00   0.00    -0.00  -0.00  -0.00
   6   1    -0.00   0.00  -0.00    -0.00  -0.00  -0.00     0.00  -0.00   0.00
   7   1     0.00  -0.00  -0.00     0.00  -0.00  -0.00     0.00   0.00  -0.00
   8   7    -0.00  -0.00   0.00    -0.00  -0.00   0.00     0.00  -0.00  -0.00
   9   6    -0.00   0.00   0.00     0.00  -0.00  -0.00     0.00   0.00   0.00
  10   1     0.00  -0.00  -0.00    -0.00   0.00   0.00     0.00   0.00  -0.00
  11   1    -0.00  -0.00   0.00     0.00  -0.00  -0.00    -0.00   0.00  -0.00
  12   1     0.00   0.00  -0.00    -0.00  -0.00  -0.00    -0.00  -0.00   0.00
  13   6     0.00   0.00  -0.00     0.00  -0.00  -0.00     0.00   0.00   0.00
  14   1    -0.00   0.00  -0.00    -0.00   0.00   0.00     0.00   0.00   0.00
  15   1     0.00   0.00  -0.00     0.00   0.00  -0.00    -0.00   0.00   0.00
  16   1     0.00  -0.00  -0.00     0.00  -0.00  -0.00     0.00  -0.00  -0.00
  17   6    -0.00   0.00   0.00     0.00  -0.00  -0.00     0.00  -0.00  -0.00
  18   1     0.00   0.00  -0.00    -0.00   0.00   0.00    -0.00   0.00   0.00
  19   1     0.00  -0.00  -0.00     0.00  -0.00  -0.00     0.00  -0.00   0.00
  20   1    -0.00  -0.00   0.00     0.00   0.00  -0.00    -0.00   0.00  -0.00
  21   1    -0.00  -0.00  -0.00    -0.00  -0.00  -0.00    -0.00  -0.00  -0.00
  22   6     0.00   0.00  -0.00    -0.00  -0.00  -0.00     0.00  -0.00   0.00
  23   8    -0.00  -0.00   0.00     0.00   0.00   0.00    -0.00   0.00  -0.00
  24   7     0.00   0.00   0.00    -0.00  -0.00  -0.00    -0.00  -0.00  -0.00
  25   1    -0.00   0.00  -0.00     0.00  -0.00   0.00     0.00  -0.00   0.01
  26   1    -0.00  -0.00   0.00     0.00   0.00  -0.00     0.00   0.00  -0.00
  27   7     0.00  -0.00   0.00     0.00  -0.00   0.00    -0.00   0.00  -0.00
  28   1    -0.00  -0.00   0.00    -0.00  -0.00   0.00     0.00   0.00  -0.00
  29   1     0.00   0.00  -0.00     0.00   0.00  -0.00    -0.00  -0.00   0.00
  30   6    -0.00  -0.00  -0.00    -0.00  -0.00   0.00     0.00  -0.00  -0.01
  31   8     0.00  -0.00   0.00     0.00  -0.00  -0.00    -0.00   0.00   0.00
  32   7     0.00   0.00  -0.00    -0.00   0.00   0.00     0.13  -0.05  -0.15
  33   1    -0.00  -0.00  -0.00    -0.00  -0.00  -0.00     0.03   0.07   0.07
  34   1    -0.00   0.00   0.00     0.00  -0.00  -0.00    -0.53   0.11   0.52
  35   7     0.00   0.00   0.00    -0.00  -0.00  -0.00    -0.04  -0.00   0.01
  36   1    -0.00   0.00  -0.00     0.00  -0.00  -0.00     0.05  -0.03  -0.03
  37   1    -0.00  -0.00  -0.00     0.00   0.00   0.00     0.08   0.03   0.01
  38   6    -0.00  -0.00  -0.00    -0.00  -0.00   0.00     0.00   0.00  -0.01
  39   8     0.00   0.00   0.00     0.00   0.00  -0.00    -0.00  -0.00   0.00
  40   7     0.00   0.00   0.00     0.00   0.00   0.00    -0.02  -0.01   0.01
  41   1    -0.00  -0.00  -0.00    -0.00  -0.00  -0.00     0.04   0.02   0.01
  42   1     0.00   0.00  -0.00     0.00   0.00  -0.00     0.03   0.02  -0.05
  43   7     0.00   0.00   0.00     0.00   0.00  -0.00     0.07   0.06  -0.13
  44   1    -0.00  -0.00   0.00    -0.00  -0.00   0.00    -0.29  -0.22   0.45
  45   1    -0.00  -0.00  -0.00     0.00   0.00   0.00     0.02   0.01   0.03
  46   6     0.00   0.00   0.00    -0.00   0.00   0.00     0.00   0.00   0.00
  47   8     0.00  -0.00   0.00     0.00  -0.00  -0.00    -0.00  -0.00  -0.00
  48   7    -0.01  -0.01   0.13    -0.00  -0.01   0.13     0.00  -0.00   0.00
  49   1    -0.38   0.15  -0.20    -0.40   0.16  -0.21    -0.00   0.00  -0.00
  50   1     0.41  -0.13  -0.28     0.41  -0.13  -0.28     0.00   0.00  -0.00
  51   7     0.12  -0.03   0.04    -0.11   0.04  -0.05    -0.00   0.00  -0.00
  52   1    -0.44   0.06   0.29     0.41  -0.05  -0.28     0.00  -0.00  -0.00
  53   1    -0.01   0.07  -0.46     0.01  -0.07   0.46     0.00  -0.00   0.00
                    148                    149                    150
                        a                      a                      a 
 Frequencies --  3533.4020              3552.5287              3554.4189
 Red. masses --     1.9075                 2.1717                 2.1526
 Frc consts  --     0.0000                 0.0000                 0.0000
 IR Inten    --     2.0624                12.1079                29.9116
 Raman Activ --     0.0000                 0.0000                 0.0000
 Depolar     --     0.0000                 0.0000                 0.0000
 Atom AN      X      Y      Z        X      Y      Z        X      Y      Z
   1   8     0.00   0.00   0.00    -0.00  -0.00   0.00     0.00   0.00   0.00
   2   6    -0.00  -0.00   0.00    -0.00   0.00  -0.00    -0.00   0.00  -0.00
   3   1     0.00   0.00   0.00     0.00  -0.00  -0.00     0.00   0.00   0.00
   4   1     0.00  -0.00  -0.00     0.00  -0.00  -0.00     0.00  -0.00  -0.00
   5   6     0.00  -0.00   0.00     0.00   0.00   0.00     0.00  -0.00   0.00
   6   1    -0.00  -0.00   0.00    -0.00   0.00  -0.00    -0.00  -0.00   0.00
   7   1     0.00   0.00  -0.00    -0.00  -0.00   0.00     0.00  -0.00   0.00
   8   7    -0.00  -0.00  -0.00    -0.00   0.00   0.00     0.00  -0.00   0.00
   9   6     0.00   0.00   0.00    -0.00  -0.00  -0.00    -0.00  -0.00   0.00
  10   1     0.00   0.00  -0.00    -0.00  -0.00  -0.00     0.00   0.00  -0.00
  11   1    -0.00  -0.00   0.00     0.00  -0.00   0.00    -0.00   0.00  -0.00
  12   1    -0.00  -0.00   0.00     0.00   0.00  -0.00     0.00  -0.00   0.00
  13   6     0.00   0.00  -0.00    -0.00   0.00   0.00    -0.00   0.00   0.00
  14   1    -0.00   0.00   0.00     0.00  -0.00  -0.00     0.00  -0.00  -0.00
  15   1    -0.00  -0.00   0.00    -0.00  -0.00  -0.00    -0.00  -0.00   0.00
  16   1     0.00  -0.00  -0.00    -0.00  -0.00   0.00     0.00   0.00  -0.00
  17   6     0.00  -0.00  -0.00    -0.00   0.00   0.00    -0.00  -0.00   0.00
  18   1    -0.00   0.00   0.00     0.00  -0.00  -0.00     0.00  -0.00  -0.00
  19   1     0.00  -0.00  -0.00    -0.00  -0.00  -0.00     0.00   0.00  -0.00
  20   1    -0.00   0.00  -0.00     0.00  -0.00   0.00     0.00   0.00  -0.00
  21   1    -0.00  -0.00  -0.00     0.00   0.00   0.00    -0.01  -0.01  -0.00
  22   6     0.00  -0.00   0.00    -0.00   0.00  -0.00    -0.00  -0.00   0.00
  23   8    -0.00   0.00  -0.00     0.00  -0.00   0.00     0.00   0.00  -0.00
  24   7     0.00   0.00  -0.00     0.00   0.00   0.00    -0.00   0.00  -0.00
  25   1     0.00  -0.00   0.01    -0.00   0.00  -0.00     0.00  -0.00   0.00
  26   1    -0.00  -0.00  -0.00    -0.00  -0.00   0.00     0.00   0.00  -0.00
  27   7    -0.00  -0.00   0.00     0.00   0.00  -0.00     0.00   0.00  -0.00
  28   1     0.00   0.00  -0.00    -0.01  -0.00   0.00    -0.00  -0.00   0.00
  29   1     0.00   0.00  -0.00    -0.01  -0.00   0.01    -0.00  -0.00   0.00
  30   6    -0.00  -0.00  -0.00    -0.01   0.00   0.00     0.00  -0.00  -0.00
  31   8     0.00   0.00   0.00     0.00  -0.00  -0.00    -0.00   0.00   0.00
  32   7     0.10  -0.04  -0.12    -0.02   0.01   0.03     0.00  -0.00  -0.00
  33   1     0.03   0.05   0.06    -0.01  -0.01  -0.01     0.00   0.01   0.01
  34   1    -0.41   0.08   0.39     0.09  -0.02  -0.09    -0.01   0.00   0.01
  35   7    -0.02  -0.00   0.00    -0.29   0.02   0.07     0.01  -0.00  -0.00
  36   1     0.03  -0.02  -0.02     0.49  -0.30  -0.35    -0.03   0.02   0.02
  37   1     0.06   0.02   0.01     0.61   0.23   0.11    -0.03  -0.01  -0.01
  38   6     0.00   0.00   0.01     0.00   0.00   0.00     0.01   0.01  -0.00
  39   8     0.00   0.00  -0.00     0.00  -0.00  -0.00    -0.00  -0.00   0.00
  40   7     0.02   0.02  -0.01     0.01   0.01  -0.01     0.21   0.14  -0.15
  41   1    -0.06  -0.03  -0.01    -0.02  -0.01  -0.00    -0.44  -0.23  -0.08
  42   1    -0.03  -0.02   0.05    -0.02  -0.02   0.04    -0.36  -0.30   0.64
  43   7    -0.10  -0.07   0.16     0.00   0.00   0.00     0.01   0.01  -0.03
  44   1     0.38   0.29  -0.59     0.00   0.00  -0.00    -0.06  -0.05   0.10
  45   1    -0.02  -0.02  -0.03    -0.00  -0.00  -0.01     0.00   0.00   0.01
  46   6     0.00   0.00   0.00    -0.00  -0.00  -0.00     0.00  -0.00  -0.00
  47   8     0.00  -0.00  -0.00     0.00   0.00   0.00    -0.00   0.00   0.00
  48   7    -0.00  -0.00   0.00    -0.00   0.00  -0.00    -0.00   0.00   0.00
  49   1    -0.00   0.00  -0.00     0.00  -0.00   0.00     0.00  -0.00   0.00
  50   1     0.00  -0.00  -0.00     0.00  -0.00  -0.00     0.00  -0.00  -0.00
  51   7    -0.00   0.00  -0.00     0.00  -0.00  -0.00     0.00   0.00  -0.00
  52   1     0.00  -0.00  -0.00    -0.00   0.00   0.00    -0.00   0.00   0.00
  53   1     0.00  -0.00   0.00     0.00  -0.00   0.00     0.00  -0.00   0.00
                    151                    152                    153
                        a                      a                      a 
 Frequencies --  3562.8996              3566.1320              3571.6216
 Red. masses --     2.1840                 2.1913                 2.1778
 Frc consts  --     0.0000                 0.0000                 0.0000
 IR Inten    --    10.0293                13.7833                11.6465
 Raman Activ --     0.0000                 0.0000                 0.0000
 Depolar     --     0.0000                 0.0000                 0.0000
 Atom AN      X      Y      Z        X      Y      Z        X      Y      Z
   1   8    -0.00  -0.00  -0.00    -0.00   0.00  -0.00    -0.00  -0.00   0.00
   2   6     0.00   0.00  -0.00     0.00  -0.00   0.00    -0.00   0.00  -0.00
   3   1    -0.00  -0.00   0.00    -0.00  -0.00  -0.00    -0.00  -0.00  -0.00
   4   1    -0.00   0.00   0.00    -0.00   0.00   0.00    -0.00   0.00   0.00
   5   6     0.00   0.00   0.00    -0.00  -0.00  -0.00     0.00  -0.00  -0.00
   6   1    -0.00  -0.00  -0.00     0.00  -0.00   0.00     0.00   0.00   0.00
   7   1     0.00  -0.00  -0.00     0.00   0.00   0.00    -0.00   0.00   0.00
   8   7    -0.00  -0.00  -0.00     0.00   0.00  -0.00     0.00   0.00  -0.00
   9   6     0.00   0.00   0.00     0.00  -0.00  -0.00    -0.00  -0.00   0.00
  10   1    -0.00   0.00   0.00    -0.00   0.00   0.00     0.00   0.00  -0.00
  11   1     0.00   0.00   0.00     0.00  -0.00   0.00    -0.00   0.00  -0.00
  12   1    -0.00  -0.00  -0.00     0.00  -0.00  -0.00     0.00   0.00   0.00
  13   6     0.00   0.00   0.00    -0.00   0.00   0.00    -0.00   0.00   0.00
  14   1    -0.00   0.00   0.00     0.00  -0.00  -0.00     0.00  -0.00  -0.00
  15   1    -0.00  -0.00  -0.00    -0.00  -0.00   0.00    -0.00   0.00   0.00
  16   1     0.00   0.00   0.00    -0.00   0.00   0.00    -0.00   0.00   0.00
  17   6     0.00  -0.00  -0.00     0.00  -0.00  -0.00    -0.00   0.00   0.00
  18   1    -0.00   0.00   0.00    -0.00   0.00   0.00     0.00  -0.00  -0.00
  19   1     0.00   0.00   0.00     0.00  -0.00  -0.00    -0.00  -0.00   0.00
  20   1     0.00   0.00   0.00     0.00  -0.00  -0.00    -0.00   0.00   0.00
  21   1     0.00   0.00   0.00     0.00   0.00   0.00     0.00   0.00   0.00
  22   6     0.01   0.00  -0.01     0.00   0.00  -0.00     0.00   0.00   0.00
  23   8    -0.00  -0.00   0.00    -0.00   0.00  -0.00    -0.00  -0.00  -0.00
  24   7     0.01   0.00   0.00     0.00   0.00  -0.00     0.00   0.00  -0.00
  25   1    -0.00   0.00  -0.01     0.00  -0.00   0.00     0.00   0.00  -0.00
  26   1    -0.03  -0.01   0.00    -0.00  -0.00   0.00    -0.00  -0.00   0.00
  27   7     0.24   0.05  -0.18     0.00   0.00  -0.00     0.00   0.00  -0.00
  28   1    -0.65  -0.04   0.05    -0.01  -0.00   0.00    -0.00  -0.00   0.00
  29   1    -0.25  -0.14   0.63    -0.00  -0.00   0.01    -0.00  -0.00   0.00
  30   6     0.00  -0.00  -0.00     0.00  -0.00   0.00     0.00   0.00   0.00
  31   8    -0.00   0.00   0.00    -0.00   0.00  -0.00    -0.00   0.00   0.00
  32   7     0.00  -0.00  -0.00     0.00  -0.00  -0.00     0.00  -0.00  -0.00
  33   1     0.00   0.00   0.00     0.00   0.00   0.00     0.00   0.00   0.00
  34   1    -0.00   0.00   0.00    -0.00   0.00   0.00    -0.00   0.00   0.00
  35   7     0.01  -0.00  -0.00     0.00  -0.00  -0.00     0.00  -0.00  -0.00
  36   1    -0.01   0.01   0.01    -0.00   0.00   0.00    -0.00   0.00   0.00
  37   1    -0.01  -0.00  -0.00    -0.00  -0.00  -0.00    -0.00  -0.00  -0.00
  38   6    -0.00  -0.00   0.00    -0.00  -0.00   0.00     0.00   0.00  -0.00
  39   8    -0.00   0.00  -0.00    -0.00   0.00  -0.00    -0.00  -0.00   0.00
  40   7    -0.00  -0.00   0.00    -0.00  -0.00   0.00     0.00   0.00  -0.00
  41   1     0.00   0.00   0.00     0.00   0.00   0.00    -0.00  -0.00  -0.00
  42   1     0.00   0.00  -0.00     0.00   0.00  -0.00    -0.00  -0.00   0.00
  43   7    -0.00  -0.00   0.00    -0.00  -0.00  -0.00     0.00   0.00  -0.00
  44   1     0.00   0.00  -0.00     0.00   0.00  -0.00    -0.00  -0.00   0.00
  45   1    -0.00  -0.00   0.00     0.00   0.00   0.00     0.00   0.00   0.00
  46   6     0.00  -0.00   0.00    -0.00   0.00  -0.01    -0.01   0.00   0.01
  47   8     0.00   0.00  -0.00     0.00  -0.00   0.00     0.00  -0.00  -0.00
  48   7     0.00  -0.00  -0.00    -0.19   0.07   0.01    -0.20   0.08   0.01
  49   1    -0.01   0.00  -0.00     0.40  -0.17   0.23     0.42  -0.17   0.24
  50   1    -0.01   0.00   0.00     0.33  -0.11  -0.25     0.36  -0.12  -0.27
  51   7    -0.00  -0.00   0.00     0.10   0.01  -0.20    -0.09  -0.01   0.18
  52   1     0.00  -0.00  -0.00    -0.39   0.05   0.24     0.38  -0.05  -0.23
  53   1    -0.00   0.00  -0.00     0.03  -0.08   0.51    -0.03   0.08  -0.47
