 Entering Gaussian System
 *********************************************
 Gaussian 98:
 frequency output generated by the xtb code
 *********************************************
                         Standard orientation:
 --------------------------------------------------------------------
  Center     Atomic     Atomic              Coordinates (Angstroms)
  Number     Number      Type              X           Y           Z
 --------------------------------------------------------------------
    1          8             0       -0.898452    0.530770   -1.167381
    2          6             0       -2.092343   -0.171140   -1.404493
    3          1             0       -2.817764    0.580084   -1.731956
    4          1             0       -1.968948   -0.899925   -2.207962
    5          6             0       -2.652214   -0.824025   -0.125926
    6          1             0       -3.740135   -0.746176   -0.123805
    7          1             0       -2.251040   -0.268095    0.727860
    8          7             0       -2.307395   -2.254601    0.105302
    9          6             0       -2.998802   -3.131741   -0.852108
   10          1             0       -4.069085   -2.936898   -0.837674
   11          1             0       -2.825846   -4.172031   -0.583387
   12          1             0       -2.607998   -2.971030   -1.855671
   13          6             0       -2.726851   -2.588750    1.477977
   14          1             0       -3.795743   -2.422207    1.597031
   15          1             0       -2.182211   -1.956969    2.179252
   16          1             0       -2.507247   -3.632919    1.691092
   17          6             0       -0.854175   -2.456111   -0.003873
   18          1             0       -0.351298   -1.747183    0.651587
   19          1             0       -0.532524   -2.316747   -1.034643
   20          1             0       -0.601596   -3.469062    0.301706
   21          1             0       -0.118313   -0.050365   -1.293321
   22          6             0        2.509226   -0.646961   -0.892433
   23          8             0        1.428674   -0.898316   -1.430727
   24          7             0        3.667055   -1.152427   -1.383512
   25          1             0        3.621429   -1.822581   -2.130274
   26          1             0        4.540142   -1.040923   -0.901645
   27          7             0        2.603664    0.134103    0.193796
   28          1             0        3.495898    0.368700    0.588671
   29          1             0        1.772112    0.593258    0.568079
   30          6             0        1.416186    4.876252    3.184315
   31          8             0        1.465139    3.728849    2.760481
   32          7             0        0.507968    5.263434    4.113666
   33          1             0       -0.216150    4.618585    4.376024
   34          1             0        0.399501    6.224995    4.379669
   35          7             0        2.265611    5.838189    2.755940
   36          1             0        2.298424    6.748066    3.178002
   37          1             0        3.017873    5.569924    2.146918
   38          6             0       -0.369602   -2.466684   -4.158113
   39          8             0       -1.144598   -2.590282   -3.216243
   40          7             0       -0.731611   -2.793791   -5.425782
   41          1             0       -1.605406   -3.271330   -5.558531
   42          1             0       -0.059650   -2.834718   -6.170338
   43          7             0        0.889608   -2.004784   -3.995904
   44          1             0        1.433760   -1.732315   -4.794851
   45          1             0        1.123529   -1.594007   -3.094068
   46          6             0       -0.156483    0.760842    2.386109
   47          8             0       -0.839943   -0.254601    2.289642
   48          7             0        0.288784    1.242835    3.560432
   49          1             0        0.115421    0.731662    4.406346
   50          1             0        0.847497    2.086051    3.567932
   51          7             0        0.263089    1.460607    1.286945
   52          1             0        0.637659    2.383233    1.463443
   53          1             0       -0.269440    1.331477    0.428577
 --------------------------------------------------------------------
     1 basis functions        1 primitive gaussians
     1 alpha electrons        1 beta electrons

 Harmonic frequencies (cm**-1), IR intensities (km*mol⁻¹),
 Raman scattering activities (A**4/amu), Raman depolarization ratios,
 reduced masses (AMU), force constants (mDyne/A) and normal coordinates:
                      1                      2                      3
                        a                      a                      a 
 Frequencies --     2.5619                14.1808                15.8530
 Red. masses --    11.2107                12.3449                11.8382
 Frc consts  --     0.0000                 0.0000                 0.0000
 IR Inten    --     0.2338                 2.1980                 1.8631
 Raman Activ --     0.0000                 0.0000                 0.0000
 Depolar     --     0.0000                 0.0000                 0.0000
 Atom AN      X      Y      Z        X      Y      Z        X      Y      Z
   1   8    -0.01  -0.00   0.01     0.14   0.02   0.06     0.08   0.01  -0.08
   2   6    -0.01  -0.01   0.02     0.08   0.08   0.06     0.05   0.04  -0.05
   3   1    -0.00  -0.00   0.00     0.03   0.04   0.03     0.02   0.02  -0.02
   4   1    -0.00  -0.00   0.01     0.01   0.03   0.01     0.01   0.00  -0.01
   5   6     0.00  -0.01   0.02     0.08   0.08   0.05     0.02   0.10  -0.04
   6   1    -0.00  -0.01   0.01     0.02   0.04   0.02     0.01   0.04  -0.01
   7   1    -0.00   0.00   0.00     0.04   0.01   0.02     0.01   0.03  -0.02
   8   7     0.02  -0.00   0.03     0.01   0.06   0.01    -0.03   0.10   0.00
   9   6     0.02  -0.02   0.04    -0.05   0.12  -0.00    -0.08   0.09   0.03
  10   1     0.00  -0.01   0.01    -0.01   0.05   0.01    -0.02   0.04   0.01
  11   1     0.01  -0.00   0.01    -0.03   0.03  -0.01    -0.03   0.03   0.02
  12   1     0.00  -0.00   0.01    -0.02   0.04  -0.00    -0.02   0.01   0.01
  13   6     0.02   0.00   0.03     0.02   0.04   0.01    -0.03   0.15   0.02
  14   1     0.01  -0.00   0.01     0.01   0.03   0.01    -0.01   0.06   0.01
  15   1     0.01   0.00   0.01     0.02  -0.00   0.00     0.00   0.04  -0.00
  16   1     0.01   0.00   0.01    -0.01   0.01  -0.01    -0.02   0.04   0.01
  17   6     0.02   0.01   0.02    -0.00  -0.02  -0.02    -0.04   0.03  -0.00
  18   1     0.00   0.01   0.00     0.01  -0.02  -0.00    -0.00   0.01  -0.01
  19   1     0.00   0.00   0.01    -0.00  -0.00  -0.01    -0.01  -0.00  -0.00
  20   1     0.01   0.00   0.01    -0.01  -0.01  -0.02    -0.02   0.01   0.01
  21   1    -0.00   0.00  -0.00     0.03  -0.01   0.01     0.01  -0.00  -0.01
  22   6     0.00   0.03  -0.04     0.06  -0.19   0.03     0.03  -0.02  -0.09
  23   8    -0.01   0.02  -0.02     0.05  -0.12   0.01     0.02  -0.08  -0.04
  24   7     0.00   0.07  -0.07     0.03  -0.31   0.05     0.02  -0.04  -0.10
  25   1     0.00   0.02  -0.02    -0.01  -0.08   0.01     0.00  -0.02  -0.01
  26   1     0.00   0.02  -0.02     0.01  -0.10   0.01     0.01   0.00  -0.04
  27   7     0.01   0.02  -0.03     0.12  -0.21   0.03     0.06   0.05  -0.15
  28   1     0.00   0.02  -0.02     0.03  -0.08   0.02     0.02   0.02  -0.05
  29   1     0.00   0.00  -0.01     0.04  -0.04   0.01     0.02   0.01  -0.04
  30   6     0.02  -0.04  -0.01    -0.20   0.07  -0.07    -0.07  -0.01   0.17
  31   8     0.15  -0.03  -0.05    -0.09   0.04   0.05     0.10   0.08  -0.02
  32   7    -0.43  -0.02  -0.46    -0.32   0.09  -0.18    -0.10  -0.32   0.29
  33   1    -0.16   0.00  -0.23    -0.07   0.01  -0.04     0.00  -0.13   0.05
  34   1    -0.13  -0.01  -0.13    -0.11   0.03  -0.08    -0.07  -0.10   0.12
  35   7     0.32  -0.09   0.47    -0.28   0.11  -0.12    -0.25   0.21   0.32
  36   1     0.04  -0.03   0.14    -0.10   0.04  -0.05    -0.11   0.04   0.12
  37   1     0.16  -0.03   0.22    -0.05   0.03  -0.01    -0.06   0.12   0.06
  38   6    -0.02  -0.01   0.01    -0.08   0.11  -0.03    -0.03  -0.16   0.03
  39   8    -0.01  -0.01   0.02    -0.08   0.12  -0.03    -0.06  -0.08   0.02
  40   7    -0.04  -0.02   0.02    -0.12   0.21  -0.05    -0.02  -0.24   0.04
  41   1    -0.01  -0.01   0.01    -0.04   0.07  -0.02    -0.01  -0.05   0.02
  42   1    -0.01  -0.01   0.00    -0.04   0.06  -0.02    -0.00  -0.09   0.02
  43   7    -0.03   0.00  -0.01    -0.05   0.03  -0.03    -0.01  -0.23   0.02
  44   1    -0.01   0.00  -0.00    -0.01   0.01  -0.01     0.00  -0.08   0.00
  45   1    -0.01   0.00  -0.00    -0.00  -0.01  -0.00    -0.00  -0.05   0.00
  46   6     0.00   0.03   0.00     0.16  -0.08   0.04     0.09   0.07  -0.09
  47   8    -0.01   0.04   0.02     0.17  -0.08   0.03     0.10   0.09  -0.09
  48   7    -0.00   0.05  -0.00     0.18  -0.11   0.05     0.11   0.09  -0.10
  49   1     0.01   0.01  -0.00     0.03  -0.02   0.02     0.04   0.02  -0.03
  50   1     0.01   0.00  -0.00     0.03  -0.02   0.02     0.04   0.02  -0.03
  51   7     0.00   0.01  -0.01     0.20  -0.08   0.06     0.08   0.08  -0.10
  52   1     0.01   0.00  -0.00     0.05  -0.02   0.02     0.02   0.02  -0.03
  53   1     0.00   0.00  -0.00     0.05  -0.02   0.01     0.02   0.02  -0.03
                      4                      5                      6
                        a                      a                      a 
 Frequencies --    23.5255                27.3116                35.4471
 Red. masses --    12.7752                12.1020                12.4754
 Frc consts  --     0.0000                 0.0000                 0.0000
 IR Inten    --     1.4958                 1.1537                 3.6774
 Raman Activ --     0.0000                 0.0000                 0.0000
 Depolar     --     0.0000                 0.0000                 0.0000
 Atom AN      X      Y      Z        X      Y      Z        X      Y      Z
   1   8     0.00   0.03   0.04    -0.05  -0.07  -0.07     0.03  -0.15  -0.07
   2   6    -0.00   0.04   0.02    -0.02  -0.11  -0.03    -0.01  -0.09  -0.02
   3   1     0.00   0.02   0.00    -0.02  -0.04  -0.01     0.01  -0.02  -0.00
   4   1    -0.00   0.01   0.01    -0.00  -0.04  -0.00    -0.02  -0.03  -0.00
   5   6    -0.03   0.05   0.01     0.01  -0.09  -0.00    -0.00  -0.05   0.00
   6   1    -0.01   0.02  -0.00     0.00  -0.04  -0.00     0.00   0.01   0.01
   7   1    -0.01   0.01   0.01    -0.01  -0.01  -0.01     0.02  -0.02  -0.00
   8   7    -0.05   0.05   0.02     0.10  -0.07   0.05    -0.09  -0.07  -0.00
   9   6    -0.03   0.05  -0.00     0.14  -0.14   0.07    -0.16  -0.03   0.01
  10   1    -0.01   0.02  -0.01     0.04  -0.06   0.02    -0.04   0.01   0.01
  11   1    -0.01   0.01   0.00     0.06  -0.03   0.03    -0.06  -0.01   0.00
  12   1    -0.00   0.01   0.00     0.04  -0.04   0.02    -0.05  -0.01   0.00
  13   6    -0.08   0.04   0.01     0.11  -0.05   0.05    -0.07  -0.04   0.01
  14   1    -0.02   0.01  -0.01     0.03  -0.03   0.01    -0.02   0.01   0.01
  15   1    -0.03   0.01   0.01     0.02   0.00   0.01    -0.00  -0.02  -0.00
  16   1    -0.03   0.01   0.00     0.05  -0.01   0.03    -0.04  -0.01   0.00
  17   6    -0.04   0.03   0.05     0.10   0.01   0.05    -0.10  -0.16  -0.03
  18   1    -0.02   0.01   0.02     0.02   0.02   0.01    -0.01  -0.05  -0.02
  19   1    -0.01   0.01   0.02     0.03  -0.00   0.01    -0.03  -0.06  -0.01
  20   1    -0.02   0.01   0.02     0.04   0.01   0.02    -0.04  -0.05  -0.01
  21   1    -0.00   0.00   0.01    -0.01  -0.01  -0.02    -0.00  -0.06   0.02
  22   6     0.02   0.09   0.04    -0.03  -0.14   0.09     0.06   0.03   0.10
  23   8     0.02   0.03   0.10    -0.00  -0.03  -0.01     0.03  -0.27   0.32
  24   7     0.04   0.20  -0.03    -0.04  -0.29   0.23     0.07   0.06   0.10
  25   1     0.01   0.05  -0.01    -0.01  -0.07   0.05     0.02  -0.04   0.08
  26   1     0.01   0.06  -0.01    -0.02  -0.10   0.08     0.03   0.08  -0.01
  27   7     0.02   0.07   0.06    -0.05  -0.16   0.12     0.09   0.37  -0.14
  28   1     0.01   0.04   0.00    -0.02  -0.07   0.05     0.03   0.15  -0.07
  29   1     0.00   0.01   0.02    -0.01  -0.02   0.00     0.01   0.08  -0.03
  30   6     0.04  -0.21  -0.19     0.06  -0.00  -0.01     0.01   0.02  -0.02
  31   8     0.39  -0.26  -0.15     0.16   0.07  -0.19    -0.07   0.06  -0.12
  32   7    -0.06  -0.44  -0.21     0.05  -0.22   0.07     0.03   0.01   0.00
  33   1     0.04  -0.17  -0.04     0.03  -0.08  -0.01    -0.00   0.01  -0.01
  34   1    -0.08  -0.12  -0.06    -0.01  -0.07   0.05     0.02   0.00   0.02
  35   7    -0.25  -0.01  -0.28    -0.03   0.13   0.11     0.07   0.00   0.05
  36   1    -0.13   0.00  -0.08    -0.03   0.02   0.06     0.03  -0.01   0.03
  37   1    -0.05   0.04  -0.07    -0.01   0.08   0.01     0.01   0.00   0.01
  38   6     0.05   0.06   0.06    -0.03   0.12  -0.04    -0.02   0.08   0.07
  39   8     0.04   0.06   0.05     0.07  -0.07   0.01    -0.08  -0.05   0.01
  40   7     0.07   0.08   0.05    -0.13   0.27  -0.06     0.00   0.40  -0.02
  41   1     0.02   0.02   0.01    -0.02   0.05  -0.01    -0.00   0.13  -0.04
  42   1     0.02   0.02   0.02    -0.05   0.11  -0.03     0.01   0.13   0.00
  43   7     0.05   0.06   0.08    -0.06   0.22  -0.11     0.01  -0.05   0.22
  44   1     0.02   0.02   0.03    -0.04   0.10  -0.03     0.02   0.02   0.08
  45   1     0.01   0.01   0.03    -0.00   0.03  -0.02     0.00  -0.06   0.08
  46   6    -0.03  -0.01   0.06    -0.07   0.14  -0.08     0.05  -0.03  -0.11
  47   8    -0.11   0.03   0.09    -0.07   0.15  -0.03     0.14  -0.08  -0.13
  48   7    -0.01  -0.01   0.06    -0.15   0.27  -0.10     0.08  -0.04  -0.12
  49   1     0.03  -0.02   0.01    -0.02   0.08  -0.02     0.05  -0.02  -0.04
  50   1     0.05  -0.04   0.00    -0.01   0.06  -0.05     0.01  -0.00  -0.03
  51   7    -0.03  -0.04   0.06    -0.05   0.07  -0.13    -0.06   0.05  -0.11
  52   1     0.02  -0.02   0.01    -0.01   0.02  -0.05    -0.04   0.02  -0.03
  53   1    -0.01  -0.00   0.02    -0.01   0.00  -0.03    -0.01   0.00  -0.03
                      7                      8                      9
                        a                      a                      a 
 Frequencies --    39.1233                49.8303                59.6358
 Red. masses --    12.5127                12.4298                12.6335
 Frc consts  --     0.0000                 0.0000                 0.0000
 IR Inten    --     4.1543                 3.6028                 1.1920
 Raman Activ --     0.0000                 0.0000                 0.0000
 Depolar     --     0.0000                 0.0000                 0.0000
 Atom AN      X      Y      Z        X      Y      Z        X      Y      Z
   1   8     0.23  -0.17   0.00     0.03   0.01   0.08    -0.21   0.00  -0.02
   2   6     0.15  -0.05  -0.03    -0.02   0.08   0.11    -0.20   0.01   0.05
   3   1     0.06   0.00  -0.02    -0.01   0.04   0.07    -0.06   0.01   0.03
   4   1     0.03  -0.02  -0.00    -0.03   0.04   0.01    -0.07   0.01   0.00
   5   6     0.05   0.02  -0.04     0.06  -0.02   0.10    -0.12  -0.02   0.06
   6   1     0.01   0.02  -0.03     0.02  -0.01   0.05    -0.04  -0.02   0.03
   7   1     0.00   0.01  -0.01     0.03  -0.02   0.03    -0.03  -0.01   0.01
   8   7    -0.02   0.01   0.03     0.10  -0.03  -0.02    -0.06  -0.01   0.03
   9   6    -0.00   0.00   0.03     0.04   0.02  -0.03    -0.02  -0.02   0.01
  10   1     0.00   0.01  -0.01     0.01  -0.00   0.02    -0.01  -0.02   0.00
  11   1    -0.01   0.00   0.02     0.03   0.00  -0.04     0.01  -0.01  -0.00
  12   1     0.01  -0.01   0.01    -0.02   0.03  -0.01    -0.01   0.00   0.00
  13   6    -0.11   0.07   0.02     0.19  -0.13  -0.01    -0.02  -0.06   0.03
  14   1    -0.03   0.03  -0.01     0.06  -0.05   0.02    -0.01  -0.03   0.01
  15   1    -0.04   0.02   0.01     0.06  -0.05  -0.00    -0.01  -0.01   0.01
  16   1    -0.04   0.02   0.02     0.07  -0.04  -0.03     0.01  -0.02   0.00
  17   6    -0.02  -0.05   0.11     0.09  -0.00  -0.13    -0.05   0.05   0.00
  18   1    -0.01  -0.01   0.03     0.04  -0.01  -0.04    -0.02   0.02  -0.00
  19   1     0.01  -0.03   0.04     0.00   0.02  -0.04    -0.02   0.02  -0.00
  20   1    -0.02  -0.01   0.05     0.04  -0.00  -0.06     0.00   0.02  -0.00
  21   1     0.05  -0.06   0.00    -0.00  -0.00  -0.00    -0.06  -0.00  -0.01
  22   6     0.14  -0.05  -0.09    -0.03  -0.01  -0.00    -0.02  -0.06  -0.03
  23   8     0.16  -0.24  -0.01     0.00  -0.06  -0.05    -0.10   0.06   0.07
  24   7     0.22   0.30  -0.31     0.01   0.00   0.07    -0.08   0.07  -0.34
  25   1     0.07   0.09  -0.09     0.02  -0.00   0.02    -0.06   0.04  -0.11
  26   1     0.06   0.10  -0.09    -0.00   0.02   0.02    -0.01  -0.04  -0.10
  27   7     0.09  -0.18   0.01    -0.09   0.02  -0.02     0.12  -0.34   0.15
  28   1     0.03   0.01  -0.03    -0.03   0.01   0.00     0.05  -0.09   0.00
  29   1     0.02  -0.08   0.02    -0.03   0.00  -0.01     0.05  -0.08   0.06
  30   6    -0.02   0.03   0.03     0.04   0.01  -0.01    -0.03   0.04  -0.05
  31   8    -0.07   0.03   0.04     0.10   0.00  -0.00    -0.16   0.11  -0.26
  32   7     0.02   0.06   0.06     0.02  -0.03  -0.02     0.04  -0.04   0.06
  33   1     0.00   0.02   0.02     0.01  -0.02  -0.00    -0.01  -0.00  -0.02
  34   1     0.01   0.02   0.01    -0.01  -0.01  -0.01     0.03  -0.02   0.05
  35   7    -0.01   0.00  -0.00     0.00   0.04  -0.02     0.04   0.04   0.09
  36   1     0.01   0.00  -0.00    -0.01   0.01  -0.01     0.03  -0.01   0.06
  37   1    -0.01  -0.01  -0.00     0.00   0.02  -0.00    -0.01   0.02  -0.00
  38   6    -0.07   0.00  -0.02    -0.06  -0.01  -0.08     0.14   0.08   0.09
  39   8     0.01  -0.10   0.04    -0.27   0.34  -0.21     0.07   0.19   0.05
  40   7    -0.20   0.16  -0.03     0.01   0.06  -0.12     0.19   0.16   0.07
  41   1    -0.05   0.04   0.00    -0.04   0.11  -0.07     0.04   0.08  -0.00
  42   1    -0.07   0.05  -0.02     0.03  -0.05  -0.01     0.07   0.02   0.03
  43   7    -0.06  -0.02  -0.09     0.10  -0.49   0.09     0.21  -0.12   0.20
  44   1    -0.03   0.01  -0.03     0.08  -0.19   0.04     0.07  -0.03   0.06
  45   1     0.01  -0.03  -0.02     0.02  -0.11   0.02     0.04  -0.02   0.05
  46   6    -0.11   0.03   0.06    -0.07   0.04   0.06     0.04  -0.02  -0.06
  47   8    -0.16   0.05   0.08     0.07  -0.05   0.07    -0.05   0.04   0.01
  48   7    -0.33   0.18   0.08    -0.29   0.22   0.08     0.11   0.01  -0.10
  49   1    -0.12   0.07   0.03    -0.03   0.04   0.02    -0.02   0.05  -0.01
  50   1    -0.07   0.04   0.02    -0.05   0.04   0.01     0.01   0.02  -0.04
  51   7     0.10  -0.13   0.04    -0.07   0.03   0.06     0.15  -0.15  -0.11
  52   1     0.03  -0.03  -0.00    -0.03   0.01   0.01     0.04  -0.04  -0.05
  53   1     0.05  -0.04  -0.00    -0.01  -0.01   0.01     0.03  -0.04  -0.03
                     10                     11                     12
                        a                      a                      a 
 Frequencies --    62.3381                66.1853                70.9914
 Red. masses --    12.2233                13.0550                13.3288
 Frc consts  --     0.0000                 0.0000                 0.0000
 IR Inten    --     1.6709                 0.7047                 0.2705
 Raman Activ --     0.0000                 0.0000                 0.0000
 Depolar     --     0.0000                 0.0000                 0.0000
 Atom AN      X      Y      Z        X      Y      Z        X      Y      Z
   1   8     0.01  -0.02   0.02     0.11  -0.01  -0.07     0.04   0.04   0.03
   2   6     0.04  -0.04  -0.06     0.06   0.04  -0.01     0.02   0.06   0.05
   3   1     0.01  -0.02  -0.04     0.02   0.02   0.01     0.01   0.02   0.02
   4   1     0.03  -0.02  -0.01    -0.00   0.01  -0.01    -0.00   0.02   0.01
   5   6    -0.05  -0.01  -0.08     0.08   0.06   0.01     0.02   0.07   0.06
   6   1    -0.02  -0.03  -0.06     0.02   0.03   0.01     0.01   0.02   0.02
   7   1    -0.06   0.02  -0.02     0.03   0.01   0.00     0.01   0.02   0.02
   8   7     0.04   0.04   0.06     0.02   0.05  -0.02     0.00   0.07   0.05
   9   6     0.21  -0.09   0.04    -0.05   0.08  -0.01     0.05   0.09   0.00
  10   1     0.06  -0.06  -0.02    -0.01   0.04   0.01     0.01   0.03  -0.02
  11   1     0.09  -0.02   0.03    -0.03   0.02  -0.01    -0.00   0.02   0.01
  12   1     0.08  -0.03   0.02    -0.02   0.02  -0.00     0.04   0.02   0.01
  13   6    -0.08   0.09   0.03     0.05   0.04  -0.01    -0.07   0.05   0.02
  14   1    -0.03   0.01  -0.03     0.02   0.02   0.00    -0.02   0.02  -0.01
  15   1    -0.06   0.05   0.01     0.02   0.00  -0.00    -0.03   0.01   0.02
  16   1    -0.01   0.04   0.04     0.00   0.01  -0.01    -0.03   0.01   0.00
  17   6     0.07   0.14   0.22     0.01  -0.02  -0.07     0.01   0.07   0.12
  18   1    -0.02   0.06   0.07     0.02  -0.02  -0.02    -0.01   0.01   0.05
  19   1     0.05   0.04   0.07    -0.00  -0.00  -0.02     0.02   0.03   0.04
  20   1     0.03   0.05   0.08    -0.01  -0.01  -0.03    -0.00   0.01   0.03
  21   1     0.01   0.00  -0.01     0.02  -0.01  -0.02     0.01   0.01  -0.02
  22   6    -0.05  -0.01  -0.06     0.05   0.05   0.11     0.01   0.01  -0.13
  23   8    -0.02  -0.08  -0.13     0.17   0.04  -0.09    -0.00   0.04  -0.13
  24   7    -0.02  -0.03   0.04     0.19   0.26   0.22    -0.05  -0.29   0.03
  25   1     0.01  -0.01   0.02     0.10   0.09   0.03    -0.03  -0.10   0.02
  26   1    -0.01   0.02   0.02     0.02   0.06   0.11    -0.00  -0.05  -0.02
  27   7    -0.14   0.07  -0.12    -0.18  -0.14   0.29     0.09   0.27  -0.34
  28   1    -0.05   0.02  -0.02    -0.07  -0.01   0.10     0.02   0.03  -0.06
  29   1    -0.05   0.01  -0.04    -0.06  -0.03   0.04     0.02   0.06  -0.07
  30   6    -0.02  -0.00   0.01    -0.06  -0.02  -0.11    -0.07  -0.07  -0.09
  31   8    -0.05  -0.01   0.03    -0.27   0.08  -0.43    -0.26  -0.01  -0.32
  32   7    -0.01   0.02   0.02     0.05  -0.12   0.04     0.04  -0.12   0.03
  33   1    -0.01   0.01   0.01    -0.02  -0.02  -0.04    -0.02  -0.02  -0.03
  34   1     0.00   0.01   0.00     0.05  -0.04   0.06     0.04  -0.04   0.04
  35   7    -0.01  -0.03   0.01     0.07  -0.05   0.09     0.05  -0.12   0.04
  36   1     0.00  -0.01  -0.00     0.05  -0.04   0.07     0.05  -0.05   0.04
  37   1    -0.00  -0.01   0.00    -0.01   0.00  -0.02    -0.01  -0.03  -0.02
  38   6     0.03  -0.03  -0.06    -0.09  -0.01  -0.00     0.09   0.05   0.05
  39   8     0.06  -0.01  -0.06    -0.07   0.08   0.03     0.20   0.11   0.14
  40   7    -0.10   0.26  -0.11    -0.15  -0.09   0.04    -0.04   0.00   0.10
  41   1    -0.05   0.12  -0.04    -0.05  -0.02   0.03    -0.02   0.00   0.06
  42   1    -0.03   0.05  -0.03    -0.05  -0.04   0.00    -0.03  -0.01   0.01
  43   7     0.15  -0.34  -0.05    -0.08  -0.03  -0.08     0.12   0.03  -0.09
  44   1     0.03  -0.07  -0.01    -0.02  -0.04  -0.03     0.01   0.00  -0.04
  45   1     0.05  -0.10  -0.01     0.00  -0.00  -0.03     0.04   0.02  -0.03
  46   6    -0.04   0.03   0.06     0.01  -0.06   0.01    -0.04  -0.09   0.08
  47   8    -0.31   0.21   0.12     0.04  -0.10   0.10     0.06  -0.18   0.16
  48   7     0.38  -0.23   0.01     0.21  -0.10  -0.05    -0.23   0.10   0.08
  49   1     0.04  -0.03   0.01     0.08  -0.02  -0.00    -0.04   0.03   0.03
  50   1     0.08  -0.05   0.01     0.03  -0.01  -0.03    -0.06   0.03   0.00
  51   7    -0.09   0.03   0.05    -0.18  -0.02  -0.02    -0.03  -0.17   0.05
  52   1     0.01  -0.00   0.01    -0.05  -0.00  -0.02    -0.03  -0.03  -0.00
  53   1    -0.05   0.03   0.02    -0.05  -0.02  -0.00    -0.00  -0.07   0.01
                     13                     14                     15
                        a                      a                      a 
 Frequencies --    75.4106                82.9123                89.0461
 Red. masses --    13.4668                12.8407                12.8060
 Frc consts  --     0.0000                 0.0000                 0.0000
 IR Inten    --     4.1644                 6.0076                19.2004
 Raman Activ --     0.0000                 0.0000                 0.0000
 Depolar     --     0.0000                 0.0000                 0.0000
 Atom AN      X      Y      Z        X      Y      Z        X      Y      Z
   1   8    -0.09   0.02  -0.11     0.03   0.03   0.04     0.02  -0.20   0.15
   2   6    -0.08   0.01  -0.05     0.06  -0.01   0.04    -0.09   0.01   0.13
   3   1    -0.03   0.00  -0.01     0.01  -0.02  -0.00    -0.01   0.04   0.08
   4   1    -0.03   0.00  -0.01     0.03  -0.01   0.02    -0.07   0.03   0.01
   5   6    -0.04   0.01  -0.03     0.07   0.00   0.06    -0.10  -0.09   0.07
   6   1    -0.01  -0.00  -0.00     0.02   0.04   0.04    -0.03  -0.02   0.02
   7   1    -0.01   0.01  -0.01     0.05  -0.02   0.01    -0.02  -0.05   0.04
   8   7    -0.01   0.03  -0.02    -0.07  -0.04  -0.02    -0.11  -0.12  -0.07
   9   6    -0.06  -0.01   0.05    -0.10   0.09  -0.11    -0.09  -0.03  -0.15
  10   1    -0.02  -0.01   0.03    -0.02   0.07  -0.06    -0.03  -0.01  -0.04
  11   1    -0.01   0.00   0.02    -0.09   0.02  -0.03    -0.03  -0.02  -0.07
  12   1    -0.03  -0.01   0.01     0.01   0.01  -0.02    -0.02   0.02  -0.04
  13   6     0.08   0.04   0.01    -0.16  -0.07  -0.05    -0.10  -0.24  -0.09
  14   1     0.03   0.01   0.02    -0.04   0.00  -0.03    -0.03  -0.09  -0.03
  15   1     0.04   0.02  -0.01    -0.04  -0.04   0.00    -0.04  -0.08  -0.01
  16   1     0.03   0.01   0.00    -0.07  -0.03  -0.03    -0.02  -0.07  -0.05
  17   6    -0.01   0.04  -0.11    -0.08  -0.17   0.04    -0.10  -0.09  -0.07
  18   1     0.01   0.02  -0.05    -0.01  -0.08   0.04    -0.03  -0.03  -0.01
  19   1    -0.03  -0.00  -0.04    -0.00  -0.03   0.02    -0.03  -0.01  -0.02
  20   1     0.01   0.02  -0.02    -0.06  -0.06  -0.01    -0.02  -0.03  -0.04
  21   1    -0.02   0.01  -0.05     0.01   0.01   0.01    -0.02  -0.07   0.01
  22   6     0.08   0.07  -0.04    -0.19  -0.03  -0.05     0.10  -0.04  -0.05
  23   8     0.15   0.26  -0.22    -0.18  -0.07  -0.12     0.16  -0.14  -0.10
  24   7     0.11   0.00   0.08    -0.16   0.10  -0.07     0.16  -0.05   0.08
  25   1     0.04   0.03  -0.00    -0.03   0.03  -0.02     0.07  -0.03   0.03
  26   1     0.01  -0.03   0.05    -0.05   0.02   0.00     0.03   0.01   0.03
  27   7     0.03  -0.04   0.06    -0.30  -0.13   0.03     0.01   0.06  -0.12
  28   1    -0.00  -0.05   0.05    -0.08  -0.01   0.01    -0.01   0.03  -0.02
  29   1     0.01   0.00  -0.01    -0.08  -0.03  -0.01    -0.01   0.00  -0.04
  30   6    -0.01  -0.07   0.06     0.07   0.10   0.00     0.05   0.09   0.02
  31   8     0.03  -0.14   0.23     0.18   0.11   0.01     0.14   0.10   0.05
  32   7    -0.05   0.03  -0.02     0.02   0.04  -0.02     0.01   0.06   0.00
  33   1    -0.00   0.01   0.03     0.02  -0.00  -0.01     0.01   0.01  -0.00
  34   1    -0.01   0.02  -0.03    -0.02   0.01  -0.01    -0.02   0.02  -0.01
  35   7    -0.04  -0.11  -0.06     0.01   0.17   0.02    -0.01   0.15   0.02
  36   1    -0.02  -0.01  -0.05    -0.02   0.05   0.01    -0.01   0.04   0.01
  37   1    -0.00  -0.05  -0.00     0.01   0.06   0.01     0.01   0.05   0.02
  38   6     0.01  -0.02   0.18     0.15  -0.04  -0.02     0.04   0.11   0.04
  39   8     0.17  -0.02   0.34     0.31  -0.17   0.08     0.12   0.38   0.15
  40   7    -0.28   0.22   0.22    -0.03   0.15  -0.02    -0.09  -0.17   0.16
  41   1    -0.09   0.08   0.09    -0.01   0.03   0.01    -0.04  -0.03   0.09
  42   1    -0.11   0.04   0.03    -0.03   0.05  -0.02    -0.05  -0.09   0.02
  43   7     0.12  -0.25   0.04     0.19  -0.09  -0.13     0.06   0.10  -0.16
  44   1    -0.01  -0.05  -0.01     0.01   0.02  -0.05     0.02  -0.04  -0.06
  45   1     0.06  -0.05  -0.00     0.06  -0.03  -0.03     0.05   0.04  -0.06
  46   6    -0.00  -0.02  -0.14     0.07  -0.02   0.07    -0.05   0.05  -0.01
  47   8     0.08  -0.08  -0.25     0.30  -0.17   0.10    -0.23   0.17   0.02
  48   7    -0.13  -0.03  -0.10     0.01   0.09   0.06     0.14  -0.05  -0.05
  49   1    -0.02  -0.04  -0.04     0.10  -0.02   0.01     0.00   0.01  -0.00
  50   1    -0.03  -0.01  -0.01     0.01   0.02  -0.00     0.04  -0.01  -0.01
  51   7    -0.01   0.05  -0.11    -0.15   0.10   0.07    -0.01   0.01  -0.03
  52   1    -0.01   0.01  -0.01    -0.05   0.03   0.01     0.02  -0.00  -0.01
  53   1     0.01   0.01  -0.03    -0.04   0.01   0.02    -0.01   0.00  -0.00
                     16                     17                     18
                        a                      a                      a 
 Frequencies --    96.3486               103.7782               120.9842
 Red. masses --    12.1503                13.3490                11.4865
 Frc consts  --     0.0000                 0.0000                 0.0000
 IR Inten    --     3.7006                 5.8273                14.0518
 Raman Activ --     0.0000                 0.0000                 0.0000
 Depolar     --     0.0000                 0.0000                 0.0000
 Atom AN      X      Y      Z        X      Y      Z        X      Y      Z
   1   8     0.04   0.14  -0.04     0.08  -0.01  -0.15     0.00  -0.06   0.02
   2   6     0.06   0.08   0.01    -0.01   0.08   0.02    -0.02  -0.06   0.17
   3   1     0.00   0.02   0.02     0.00   0.04   0.04    -0.01  -0.02   0.05
   4   1     0.01   0.03  -0.00    -0.04   0.03  -0.00    -0.03  -0.03   0.06
   5   6     0.15   0.02   0.02     0.10   0.09   0.07     0.09   0.04   0.27
   6   1     0.05   0.03   0.04     0.03   0.02   0.04     0.03   0.06   0.13
   7   1     0.08  -0.02   0.01     0.04   0.02   0.01     0.09  -0.01   0.06
   8   7     0.09  -0.02  -0.14     0.13   0.09   0.06    -0.08  -0.01   0.21
   9   6    -0.15   0.10  -0.07     0.07   0.09   0.10    -0.26   0.14   0.20
  10   1    -0.04   0.06   0.02     0.02   0.03   0.04    -0.06   0.10   0.06
  11   1    -0.06   0.02  -0.04     0.02   0.03   0.03    -0.14   0.03   0.06
  12   1    -0.08   0.03  -0.03     0.01   0.02   0.02    -0.07   0.02   0.06
  13   6     0.27  -0.09  -0.08     0.21   0.09   0.08     0.01  -0.00   0.23
  14   1     0.08  -0.03   0.02     0.06   0.02   0.04     0.01   0.02   0.09
  15   1     0.10  -0.03  -0.04     0.07   0.03   0.01     0.03  -0.01   0.05
  16   1     0.09  -0.03  -0.05     0.07   0.03   0.02    -0.01  -0.00   0.06
  17   6     0.05  -0.12  -0.36     0.11   0.07  -0.03    -0.11  -0.19   0.05
  18   1     0.06  -0.05  -0.13     0.05   0.02  -0.02     0.01  -0.08   0.01
  19   1    -0.03  -0.04  -0.12     0.01   0.01  -0.02    -0.05  -0.05   0.01
  20   1     0.01  -0.04  -0.12     0.03   0.02  -0.01    -0.06  -0.07  -0.01
  21   1     0.01   0.03   0.00    -0.00  -0.04  -0.01     0.00  -0.01  -0.02
  22   6    -0.04  -0.00  -0.02    -0.14  -0.15   0.01     0.05   0.04  -0.07
  23   8    -0.09  -0.00   0.06    -0.17  -0.47   0.17     0.10   0.15  -0.21
  24   7    -0.09  -0.07  -0.06    -0.09   0.09  -0.12     0.08  -0.03   0.05
  25   1    -0.04  -0.02  -0.01    -0.02  -0.02   0.01     0.03   0.01  -0.01
  26   1    -0.01  -0.01  -0.04    -0.02   0.05  -0.04     0.01  -0.02   0.03
  27   7     0.03   0.06  -0.07    -0.20  -0.08  -0.05    -0.01  -0.01  -0.03
  28   1     0.01   0.01  -0.03    -0.05   0.06  -0.06    -0.01  -0.03   0.02
  29   1     0.01   0.01   0.00    -0.06  -0.03  -0.02    -0.00   0.00  -0.02
  30   6    -0.01   0.00  -0.03    -0.05  -0.10   0.03    -0.05  -0.08   0.02
  31   8    -0.06   0.02  -0.09    -0.09  -0.14   0.13    -0.10  -0.11   0.06
  32   7     0.02  -0.03   0.02    -0.04  -0.00  -0.00    -0.03  -0.02   0.00
  33   1    -0.01  -0.00  -0.01    -0.01   0.01   0.03    -0.01   0.00   0.02
  34   1     0.01  -0.01   0.01     0.01   0.00  -0.01     0.01  -0.00   0.00
  35   7     0.01  -0.00   0.01    -0.02  -0.17  -0.05    -0.01  -0.15  -0.03
  36   1     0.01  -0.01   0.02     0.00  -0.03  -0.04     0.00  -0.03  -0.03
  37   1    -0.00   0.00  -0.00    -0.01  -0.07  -0.01    -0.01  -0.06  -0.01
  38   6     0.01  -0.09   0.09     0.07   0.09   0.04     0.10  -0.01  -0.15
  39   8     0.09  -0.32   0.14     0.13   0.24   0.11     0.07  -0.07  -0.22
  40   7    -0.07   0.10   0.07     0.02  -0.09   0.11     0.19   0.04  -0.21
  41   1    -0.01   0.01   0.02     0.00  -0.02   0.06     0.06  -0.00  -0.08
  42   1    -0.03   0.06   0.01    -0.01  -0.05   0.02     0.07   0.01  -0.04
  43   7    -0.01  -0.04   0.08     0.07   0.14  -0.07     0.10   0.01  -0.11
  44   1    -0.03   0.04   0.02     0.02   0.01  -0.03     0.02   0.02  -0.03
  45   1    -0.00  -0.02   0.03     0.03   0.03  -0.02     0.02   0.01  -0.03
  46   6    -0.09   0.07   0.12    -0.04   0.04  -0.10    -0.03   0.10  -0.07
  47   8    -0.35   0.24   0.17    -0.01   0.02  -0.13    -0.12   0.17  -0.07
  48   7     0.08  -0.03   0.10    -0.00  -0.02  -0.11     0.04   0.04  -0.08
  49   1    -0.05   0.04   0.04     0.01  -0.02  -0.04    -0.02   0.02  -0.02
  50   1     0.02  -0.01   0.03    -0.01   0.00  -0.02     0.00   0.02  -0.02
  51   7     0.05  -0.04   0.10    -0.14   0.10  -0.10    -0.01   0.08  -0.08
  52   1     0.04  -0.02   0.02    -0.03   0.03  -0.02     0.01   0.02  -0.02
  53   1     0.00   0.01   0.03    -0.03   0.02  -0.03    -0.00   0.02  -0.02
                     19                     20                     21
                        a                      a                      a 
 Frequencies --   122.1175               131.9522               147.1266
 Red. masses --    12.9065                10.9712                10.6739
 Frc consts  --     0.0000                 0.0000                 0.0000
 IR Inten    --     3.9561                 5.3825                12.4592
 Raman Activ --     0.0000                 0.0000                 0.0000
 Depolar     --     0.0000                 0.0000                 0.0000
 Atom AN      X      Y      Z        X      Y      Z        X      Y      Z
   1   8     0.13   0.12   0.37    -0.03  -0.18   0.31    -0.14   0.03  -0.07
   2   6     0.18   0.06   0.15    -0.12   0.08   0.06    -0.26   0.19   0.18
   3   1     0.05   0.01   0.03     0.01   0.07   0.03    -0.07   0.09   0.13
   4   1     0.09   0.03   0.04    -0.05   0.05  -0.01    -0.16   0.08   0.02
   5   6     0.06  -0.05   0.04    -0.32   0.01  -0.07    -0.06   0.09   0.22
   6   1     0.02  -0.01  -0.01    -0.10  -0.05  -0.09    -0.02   0.02   0.11
   7   1     0.01  -0.03   0.03    -0.17   0.03  -0.00     0.01   0.00   0.06
   8   7     0.03  -0.07  -0.02    -0.11   0.08  -0.02     0.02   0.09  -0.00
   9   6     0.11  -0.01  -0.13    -0.10  -0.07   0.12     0.16   0.19  -0.21
  10   1     0.03  -0.00  -0.06    -0.04  -0.10   0.10     0.05   0.08  -0.12
  11   1     0.03  -0.01  -0.06     0.06  -0.01   0.02     0.01   0.05  -0.07
  12   1     0.05   0.02  -0.03    -0.10   0.01   0.01     0.11   0.06  -0.03
  13   6    -0.12  -0.15  -0.08     0.16   0.10   0.07    -0.06  -0.21  -0.10
  14   1    -0.04  -0.04  -0.05     0.05   0.03   0.08    -0.03  -0.12  -0.05
  15   1    -0.05  -0.05   0.00     0.08   0.04  -0.02    -0.06  -0.07   0.02
  16   1    -0.04  -0.05  -0.03     0.06   0.03   0.02     0.03  -0.06  -0.07
  17   6     0.04  -0.07   0.13    -0.09   0.25  -0.22     0.05   0.24   0.09
  18   1    -0.01  -0.03   0.06    -0.02   0.13  -0.13    -0.02   0.05   0.07
  19   1     0.04  -0.00   0.05    -0.08   0.01  -0.09     0.04   0.11   0.04
  20   1     0.00  -0.03   0.03     0.03   0.10  -0.01     0.03   0.06  -0.01
  21   1     0.04   0.04   0.09    -0.03  -0.06   0.05    -0.06  -0.02  -0.02
  22   6    -0.06   0.02   0.03     0.02  -0.05  -0.01     0.07  -0.02   0.08
  23   8    -0.09   0.05   0.05     0.05  -0.17  -0.03     0.07  -0.11   0.15
  24   7    -0.09   0.03  -0.04     0.08   0.03   0.03     0.10   0.06   0.05
  25   1    -0.04   0.01  -0.01     0.04  -0.01   0.02     0.03  -0.01   0.04
  26   1    -0.02  -0.01  -0.01     0.01   0.02   0.02     0.02   0.02   0.02
  27   7    -0.02  -0.02   0.05    -0.06  -0.02  -0.03     0.09   0.04   0.05
  28   1     0.00  -0.01  -0.00    -0.02   0.02  -0.02     0.03   0.03  -0.01
  29   1     0.00   0.02   0.01    -0.02  -0.00  -0.02     0.02   0.00   0.01
  30   6    -0.06  -0.08  -0.06    -0.00   0.01  -0.05    -0.02  -0.03   0.03
  31   8    -0.18  -0.06  -0.17    -0.04   0.04  -0.13    -0.02  -0.05   0.07
  32   7     0.01  -0.10   0.01     0.02  -0.04  -0.00    -0.02   0.01  -0.00
  33   1    -0.01  -0.01  -0.02    -0.00  -0.01  -0.02     0.00   0.00   0.02
  34   1     0.02  -0.03   0.02     0.01  -0.01   0.01     0.00   0.00   0.00
  35   7     0.01  -0.14  -0.02     0.01   0.02   0.01    -0.01  -0.06  -0.01
  36   1     0.03  -0.04   0.01     0.01  -0.01   0.02    -0.00  -0.01  -0.02
  37   1    -0.01  -0.04  -0.02     0.00   0.01  -0.00    -0.01  -0.02  -0.00
  38   6    -0.04  -0.02   0.03     0.08  -0.05  -0.07    -0.02  -0.14  -0.07
  39   8    -0.02  -0.01   0.06     0.15  -0.19  -0.05     0.07  -0.35  -0.04
  40   7    -0.09  -0.00   0.04     0.05   0.03  -0.10    -0.09   0.00  -0.10
  41   1    -0.03   0.00   0.02     0.03  -0.02  -0.02    -0.01  -0.03  -0.02
  42   1    -0.03  -0.01   0.01     0.01   0.02  -0.03    -0.03   0.03  -0.04
  43   7    -0.03  -0.06   0.02     0.06   0.02  -0.12    -0.05  -0.06  -0.10
  44   1    -0.01  -0.01   0.00     0.00   0.03  -0.04    -0.03   0.02  -0.03
  45   1    -0.01  -0.01   0.00     0.02  -0.01  -0.03    -0.01  -0.04  -0.02
  46   6     0.05   0.14  -0.13     0.05   0.01   0.06     0.03   0.01  -0.04
  47   8     0.04   0.20  -0.39     0.13  -0.01  -0.11     0.04  -0.01   0.05
  48   7    -0.08  -0.06   0.01    -0.08  -0.07   0.16     0.04   0.10  -0.09
  49   1    -0.06  -0.05  -0.03     0.01  -0.06   0.02     0.01   0.04  -0.01
  50   1    -0.01  -0.02   0.05    -0.00  -0.03   0.07     0.00   0.03  -0.04
  51   7     0.21   0.30   0.03     0.08   0.15   0.17     0.00  -0.06  -0.10
  52   1     0.06   0.07   0.05     0.02   0.03   0.07    -0.00  -0.01  -0.04
  53   1     0.06   0.11  -0.00     0.03   0.05   0.04    -0.00  -0.03  -0.02
                     22                     23                     24
                        a                      a                      a 
 Frequencies --   159.4224               168.4756               173.4413
 Red. masses --    12.8325                12.5036                12.4317
 Frc consts  --     0.0000                 0.0000                 0.0000
 IR Inten    --     6.1752                12.8643                14.4942
 Raman Activ --     0.0000                 0.0000                 0.0000
 Depolar     --     0.0000                 0.0000                 0.0000
 Atom AN      X      Y      Z        X      Y      Z        X      Y      Z
   1   8    -0.09  -0.07  -0.08     0.22  -0.15   0.24    -0.15   0.03  -0.24
   2   6    -0.04  -0.09  -0.13     0.09   0.09   0.09    -0.12  -0.04  -0.07
   3   1    -0.01  -0.04  -0.05     0.06   0.07   0.05    -0.05  -0.02  -0.01
   4   1     0.00  -0.03  -0.03    -0.00   0.05   0.00    -0.05  -0.02  -0.02
   5   6    -0.06  -0.07  -0.12    -0.06   0.02  -0.01     0.03  -0.01   0.01
   6   1    -0.02  -0.02  -0.04    -0.02  -0.01  -0.05     0.01   0.01   0.05
   7   1    -0.02  -0.01  -0.04    -0.06  -0.00   0.02     0.05  -0.01  -0.01
   8   7    -0.06  -0.06  -0.09    -0.00   0.03  -0.05     0.00  -0.03  -0.03
   9   6    -0.05  -0.10  -0.05     0.05   0.02  -0.07     0.03  -0.01  -0.07
  10   1    -0.02  -0.04  -0.01     0.01  -0.03  -0.01     0.01   0.03  -0.05
  11   1    -0.01  -0.03  -0.01     0.05   0.01  -0.04    -0.03  -0.00  -0.00
  12   1    -0.02  -0.03  -0.02    -0.00   0.03  -0.02     0.04  -0.02  -0.01
  13   6    -0.05   0.01  -0.06    -0.01  -0.04  -0.07    -0.06  -0.05  -0.05
  14   1    -0.01   0.01  -0.02    -0.00  -0.01  -0.02    -0.02  -0.03  -0.03
  15   1    -0.01   0.01  -0.03    -0.00  -0.02  -0.01    -0.04  -0.01  -0.00
  16   1    -0.02   0.00  -0.00    -0.00  -0.02  -0.03    -0.00  -0.01  -0.01
  17   6    -0.06  -0.05  -0.07     0.01   0.11  -0.03     0.01  -0.01   0.04
  18   1    -0.02  -0.01  -0.03    -0.01   0.05  -0.02    -0.01  -0.02   0.03
  19   1    -0.02  -0.02  -0.02    -0.00   0.01  -0.01     0.02   0.02   0.02
  20   1    -0.01  -0.01  -0.01     0.02   0.04   0.01    -0.00  -0.01  -0.01
  21   1    -0.02  -0.01  -0.02     0.04  -0.05   0.01    -0.04   0.01  -0.04
  22   6    -0.05   0.03   0.05    -0.03  -0.03  -0.15     0.15  -0.12  -0.13
  23   8    -0.04  -0.02   0.03     0.03  -0.00  -0.33     0.16  -0.08  -0.13
  24   7    -0.02   0.07   0.08     0.02  -0.04   0.01     0.16  -0.11  -0.14
  25   1     0.01   0.01   0.03     0.04   0.03  -0.04     0.04  -0.03  -0.04
  26   1    -0.01   0.02   0.03    -0.00   0.03   0.00     0.04  -0.04  -0.03
  27   7    -0.08   0.07   0.02    -0.23  -0.07  -0.13     0.12  -0.17  -0.08
  28   1    -0.02   0.01   0.01    -0.08  -0.05   0.03     0.03  -0.02  -0.02
  29   1    -0.02   0.01   0.02    -0.08  -0.03  -0.05     0.04  -0.03  -0.05
  30   6    -0.08  -0.13   0.03    -0.02  -0.03   0.03    -0.03  -0.03  -0.02
  31   8    -0.17  -0.17   0.08    -0.02  -0.06   0.08    -0.08  -0.03  -0.05
  32   7    -0.06  -0.03  -0.00    -0.03   0.02  -0.01    -0.00  -0.03  -0.00
  33   1    -0.01  -0.00   0.04     0.00   0.00   0.03    -0.00  -0.01  -0.00
  34   1     0.03  -0.01   0.03     0.01   0.00   0.01     0.01  -0.01   0.01
  35   7    -0.00  -0.26  -0.04    -0.00  -0.07  -0.01     0.01  -0.07  -0.01
  36   1    -0.00  -0.04  -0.07    -0.01  -0.01  -0.03     0.01  -0.02  -0.01
  37   1    -0.03  -0.09  -0.04    -0.01  -0.03  -0.01    -0.01  -0.02  -0.01
  38   6     0.01   0.02  -0.02    -0.02   0.02   0.17    -0.02   0.03   0.08
  39   8     0.03   0.10   0.01    -0.17  -0.16   0.06    -0.09  -0.01   0.03
  40   7    -0.06  -0.03   0.01     0.22   0.10   0.09     0.09   0.02   0.06
  41   1    -0.03   0.01   0.02     0.08  -0.00  -0.03     0.03   0.00  -0.01
  42   1    -0.03  -0.02  -0.01     0.10   0.06   0.06     0.04   0.02   0.03
  43   7     0.03  -0.02  -0.07    -0.11   0.16   0.36    -0.05   0.07   0.16
  44   1     0.01  -0.02  -0.02    -0.01   0.04   0.11    -0.00   0.01   0.05
  45   1     0.01  -0.00  -0.02    -0.04   0.02   0.11    -0.01   0.01   0.05
  46   6     0.21   0.19   0.13     0.00   0.02  -0.05    -0.03   0.16   0.14
  47   8     0.24   0.22   0.27     0.03  -0.02   0.11     0.13   0.08   0.03
  48   7     0.18   0.40   0.06     0.10   0.16  -0.15     0.01  -0.01   0.22
  49   1     0.03   0.15   0.04     0.03   0.07  -0.02     0.10  -0.09   0.03
  50   1     0.03   0.12  -0.02     0.00   0.06  -0.08     0.02  -0.02   0.08
  51   7     0.29   0.01   0.00    -0.10  -0.08  -0.16    -0.29   0.45   0.25
  52   1     0.06   0.01  -0.03    -0.03  -0.01  -0.07    -0.07   0.11   0.09
  53   1     0.05  -0.01   0.02    -0.04  -0.05  -0.03    -0.06   0.12   0.06
                     25                     26                     27
                        a                      a                      a 
 Frequencies --   192.3301               217.3239               241.2965
 Red. masses --    11.9553                 3.6768                13.0608
 Frc consts  --     0.0000                 0.0000                 0.0000
 IR Inten    --    58.6655                13.5798                 3.4131
 Raman Activ --     0.0000                 0.0000                 0.0000
 Depolar     --     0.0000                 0.0000                 0.0000
 Atom AN      X      Y      Z        X      Y      Z        X      Y      Z
   1   8     0.12   0.01   0.29    -0.01   0.03  -0.00     0.32  -0.64  -0.24
   2   6     0.14   0.02   0.05    -0.00   0.00   0.00    -0.02  -0.07  -0.01
   3   1     0.06   0.01  -0.01    -0.00  -0.00  -0.00     0.06   0.07   0.07
   4   1     0.08   0.01   0.01     0.00   0.00   0.00    -0.15  -0.01  -0.03
   5   6    -0.06  -0.02  -0.06     0.00  -0.00   0.00    -0.00   0.04   0.04
   6   1    -0.02  -0.02  -0.07     0.00  -0.00   0.00     0.00   0.02   0.02
   7   1    -0.06  -0.01   0.00     0.00   0.00   0.00     0.02   0.02   0.00
   8   7    -0.03  -0.01  -0.04     0.00  -0.00   0.01     0.01   0.05   0.01
   9   6    -0.04  -0.04   0.00     0.00  -0.00   0.01     0.02   0.11  -0.05
  10   1    -0.02  -0.06   0.05     0.00   0.00   0.00     0.01   0.07  -0.06
  11   1     0.04  -0.01  -0.03    -0.00  -0.00   0.00    -0.04   0.03   0.00
  12   1    -0.06   0.02  -0.01     0.00  -0.00   0.00     0.05   0.00  -0.00
  13   6     0.02   0.02  -0.01     0.00   0.00   0.01     0.03  -0.04  -0.02
  14   1     0.01   0.03   0.01     0.00  -0.00   0.00     0.00  -0.05  -0.01
  15   1     0.03  -0.00  -0.01    -0.00   0.00   0.00    -0.02   0.00   0.00
  16   1    -0.02   0.00  -0.01     0.00   0.00   0.00     0.04  -0.01  -0.01
  17   6    -0.03   0.02  -0.07     0.00  -0.01   0.00     0.02   0.11  -0.00
  18   1    -0.01   0.02  -0.04     0.00  -0.00   0.00    -0.00   0.05  -0.01
  19   1    -0.02  -0.02  -0.03     0.00  -0.00   0.00    -0.00   0.02  -0.00
  20   1     0.00   0.01   0.01    -0.00  -0.00  -0.00     0.02   0.04   0.01
  21   1     0.04   0.01   0.09    -0.00   0.01   0.00     0.04  -0.22  -0.06
  22   6     0.09   0.01   0.06     0.00  -0.01  -0.00    -0.08   0.13   0.05
  23   8    -0.01   0.14   0.23     0.00  -0.01  -0.01    -0.12   0.26   0.04
  24   7    -0.05  -0.09  -0.20     0.01   0.00   0.00    -0.24  -0.07  -0.03
  25   1    -0.09  -0.05  -0.03     0.00  -0.00   0.01    -0.11   0.06  -0.07
  26   1     0.01  -0.10  -0.07    -0.00  -0.00   0.01    -0.02   0.01  -0.10
  27   7     0.32  -0.05   0.10    -0.01  -0.00  -0.01     0.06   0.05   0.10
  28   1     0.10  -0.01  -0.02    -0.00   0.00  -0.00     0.03  -0.05   0.04
  29   1     0.11   0.02   0.02    -0.00  -0.00  -0.00     0.03   0.03   0.05
  30   6    -0.02  -0.04   0.03     0.01   0.04  -0.01     0.00   0.00  -0.01
  31   8    -0.04  -0.06   0.07     0.02   0.04  -0.03     0.00   0.00  -0.01
  32   7    -0.03   0.02  -0.01    -0.16   0.06  -0.25    -0.00  -0.00  -0.01
  33   1     0.01  -0.00   0.04     0.20  -0.10   0.30     0.01  -0.01   0.01
  34   1     0.02  -0.00   0.02     0.27  -0.09   0.41     0.01  -0.00   0.01
  35   7     0.00  -0.09  -0.01     0.18  -0.06   0.25     0.01   0.00   0.01
  36   1    -0.01  -0.01  -0.04    -0.30   0.20  -0.38    -0.01   0.01  -0.01
  37   1    -0.02  -0.03  -0.02    -0.19   0.12  -0.28    -0.01   0.01  -0.01
  38   6     0.00  -0.02  -0.07     0.00   0.00   0.00    -0.01   0.01  -0.00
  39   8     0.07   0.02  -0.02    -0.00   0.00   0.00    -0.01   0.03  -0.00
  40   7    -0.10  -0.03  -0.04     0.00   0.00   0.00    -0.02  -0.01   0.01
  41   1    -0.03   0.00   0.01     0.00  -0.00   0.00    -0.01   0.00   0.00
  42   1    -0.04  -0.02  -0.02     0.00  -0.00   0.00    -0.01  -0.01  -0.00
  43   7     0.05  -0.08  -0.13    -0.00   0.00   0.00     0.01  -0.04   0.00
  44   1    -0.00  -0.00  -0.04     0.00  -0.00   0.00    -0.01   0.02  -0.00
  45   1     0.00  -0.00  -0.04     0.00   0.00   0.00    -0.02   0.02  -0.01
  46   6    -0.09   0.07  -0.03    -0.02  -0.03  -0.00     0.01   0.03   0.04
  47   8     0.03  -0.05   0.18    -0.04  -0.02  -0.03     0.02   0.04  -0.04
  48   7     0.13   0.16  -0.15    -0.03  -0.05   0.01    -0.00  -0.07   0.09
  49   1     0.12   0.03  -0.03    -0.00  -0.02   0.00    -0.01  -0.03   0.01
  50   1     0.02   0.06  -0.08    -0.00  -0.02  -0.00     0.00  -0.02   0.05
  51   7    -0.47   0.12  -0.11     0.03  -0.02   0.03    -0.00   0.10   0.09
  52   1    -0.15   0.04  -0.06     0.01  -0.01   0.02    -0.01   0.03   0.02
  53   1    -0.12  -0.03  -0.03     0.01   0.01   0.01     0.05  -0.02  -0.00
                     28                     29                     30
                        a                      a                      a 
 Frequencies --   256.9776               259.1546               277.6405
 Red. masses --     2.2630                 2.7750                 7.4655
 Frc consts  --     0.0000                 0.0000                 0.0000
 IR Inten    --     2.0318               116.6677                 1.7656
 Raman Activ --     0.0000                 0.0000                 0.0000
 Depolar     --     0.0000                 0.0000                 0.0000
 Atom AN      X      Y      Z        X      Y      Z        X      Y      Z
   1   8     0.04   0.02  -0.21    -0.05   0.09   0.04    -0.06   0.03  -0.00
   2   6    -0.02   0.05   0.03    -0.01   0.02   0.00     0.21  -0.41  -0.11
   3   1    -0.01   0.02   0.04    -0.01  -0.01  -0.01     0.04  -0.23  -0.24
   4   1    -0.04   0.02  -0.00     0.02   0.00   0.00     0.22  -0.22   0.09
   5   6     0.06   0.01   0.06    -0.01  -0.01  -0.01    -0.03   0.04   0.04
   6   1     0.02   0.01   0.02    -0.00  -0.00  -0.01    -0.01   0.04  -0.00
   7   1     0.02  -0.01   0.02    -0.01  -0.00  -0.00    -0.01   0.04  -0.01
   8   7     0.00  -0.02   0.04    -0.01  -0.00  -0.01    -0.07   0.07   0.08
   9   6     0.04   0.02  -0.01    -0.01  -0.02   0.01    -0.16   0.27  -0.04
  10   1    -0.04  -0.31   0.32     0.00   0.01  -0.02    -0.05   0.06   0.07
  11   1     0.40   0.00  -0.28    -0.02  -0.00   0.02    -0.01   0.06  -0.11
  12   1    -0.28   0.32  -0.07     0.01  -0.03   0.01    -0.11   0.16  -0.02
  13   6    -0.13  -0.06  -0.02     0.01   0.02   0.00     0.09  -0.31   0.02
  14   1     0.00   0.21   0.04    -0.00  -0.01  -0.00     0.01  -0.20   0.03
  15   1     0.11  -0.18   0.03    -0.01   0.02  -0.00    -0.03  -0.08   0.03
  16   1    -0.27  -0.08  -0.09     0.02   0.01   0.01     0.14  -0.08  -0.06
  17   6    -0.00  -0.05   0.08    -0.01  -0.01  -0.01    -0.03   0.34   0.04
  18   1     0.01   0.09  -0.09    -0.00  -0.02   0.02    -0.05   0.14  -0.00
  19   1    -0.02  -0.16  -0.01     0.01   0.02   0.00    -0.01   0.09   0.01
  20   1     0.01   0.04   0.18    -0.01  -0.01  -0.03     0.06   0.12   0.03
  21   1    -0.00  -0.01  -0.04    -0.01   0.02   0.03     0.04   0.07   0.02
  22   6    -0.01   0.01  -0.00     0.03  -0.00  -0.00     0.00  -0.02  -0.00
  23   8    -0.00   0.02  -0.01     0.01  -0.06   0.05     0.00  -0.04   0.01
  24   7    -0.02  -0.02   0.02    -0.07  -0.23   0.20     0.01   0.00   0.00
  25   1     0.00   0.03  -0.03     0.10   0.35  -0.32     0.01   0.00  -0.00
  26   1     0.01   0.04  -0.03     0.16   0.56  -0.43     0.01   0.02  -0.01
  27   7    -0.00   0.01   0.00     0.04   0.04  -0.03    -0.02  -0.00  -0.02
  28   1    -0.00  -0.02   0.01    -0.01  -0.21   0.17    -0.01  -0.00   0.00
  29   1     0.00  -0.00   0.01    -0.01  -0.10   0.08    -0.01  -0.01  -0.00
  30   6     0.00   0.00  -0.00    -0.00  -0.00  -0.00     0.00   0.00  -0.00
  31   8     0.00   0.00  -0.00    -0.00  -0.00  -0.00     0.00   0.00  -0.00
  32   7     0.00  -0.00  -0.00    -0.00  -0.00  -0.00     0.00   0.00   0.00
  33   1    -0.00  -0.00  -0.00     0.00  -0.00   0.00    -0.00   0.00  -0.00
  34   1    -0.00  -0.00  -0.00     0.00  -0.00   0.00    -0.00   0.00  -0.00
  35   7     0.00   0.00   0.00     0.00  -0.01   0.00     0.00   0.00   0.00
  36   1    -0.00   0.00  -0.00    -0.00   0.00  -0.00    -0.00   0.00  -0.00
  37   1    -0.00   0.00  -0.00    -0.00  -0.00  -0.00    -0.00   0.00  -0.00
  38   6     0.01  -0.01  -0.00     0.01  -0.01  -0.01     0.00   0.02   0.01
  39   8     0.02  -0.02   0.00     0.03   0.01  -0.00    -0.01   0.04   0.01
  40   7    -0.00   0.02  -0.02    -0.03   0.01  -0.02    -0.01  -0.01   0.03
  41   1     0.02  -0.03   0.01    -0.00  -0.02   0.01    -0.01   0.02   0.01
  42   1     0.02  -0.04   0.01     0.00  -0.05   0.01    -0.01   0.01  -0.00
  43   7     0.01  -0.00  -0.02     0.01  -0.00  -0.03    -0.00   0.01   0.01
  44   1    -0.01   0.02  -0.01    -0.00   0.01  -0.01     0.01  -0.02   0.01
  45   1    -0.00   0.00  -0.01     0.00  -0.02   0.00     0.00  -0.00   0.01
  46   6     0.00   0.01   0.01    -0.01   0.01  -0.01     0.00  -0.01  -0.00
  47   8    -0.01   0.02  -0.00     0.02  -0.01  -0.01     0.01  -0.01  -0.01
  48   7     0.00  -0.01   0.02     0.01   0.01  -0.02    -0.01  -0.00  -0.00
  49   1    -0.01  -0.00   0.01     0.01   0.00  -0.00    -0.00  -0.00  -0.00
  50   1     0.00  -0.00   0.01    -0.01   0.01  -0.01    -0.00  -0.00  -0.00
  51   7     0.02   0.02   0.02    -0.04   0.02  -0.01     0.01  -0.01  -0.01
  52   1     0.01   0.00   0.01     0.00   0.00  -0.01     0.00  -0.00   0.00
  53   1     0.01   0.01   0.00    -0.00   0.01  -0.01    -0.01   0.02   0.01
                     31                     32                     33
                        a                      a                      a 
 Frequencies --   303.1657               309.0409               329.8388
 Red. masses --     3.1815                 4.0903                 6.8583
 Frc consts  --     0.0000                 0.0000                 0.0000
 IR Inten    --   116.5305                60.6336                 2.8089
 Raman Activ --     0.0000                 0.0000                 0.0000
 Depolar     --     0.0000                 0.0000                 0.0000
 Atom AN      X      Y      Z        X      Y      Z        X      Y      Z
   1   8     0.11   0.07  -0.10    -0.16  -0.11   0.16     0.19   0.21  -0.23
   2   6     0.05   0.10  -0.00    -0.07  -0.15  -0.04     0.14   0.10   0.10
   3   1     0.02   0.05   0.03    -0.02  -0.07  -0.06     0.03   0.03   0.06
   4   1    -0.02   0.05  -0.02     0.03  -0.06   0.01     0.00   0.03   0.03
   5   6     0.03   0.01  -0.03    -0.04  -0.03  -0.01     0.07  -0.01   0.08
   6   1     0.01   0.02  -0.01    -0.01  -0.03   0.00     0.02   0.05   0.00
   7   1     0.01  -0.00  -0.00    -0.02   0.01  -0.01     0.02  -0.05   0.05
   8   7    -0.05  -0.02   0.01     0.08   0.03  -0.03    -0.12  -0.09   0.01
   9   6    -0.06  -0.10   0.10     0.05   0.17  -0.14    -0.08  -0.30   0.15
  10   1    -0.03  -0.12   0.12     0.04   0.18  -0.16    -0.00   0.04  -0.11
  11   1     0.09  -0.02  -0.01    -0.14   0.04   0.01    -0.18  -0.06   0.22
  12   1    -0.11   0.03   0.00     0.13  -0.03  -0.01     0.10  -0.27   0.06
  13   6    -0.05  -0.08  -0.00     0.11   0.10  -0.01    -0.12  -0.23  -0.02
  14   1    -0.06  -0.29  -0.08     0.09   0.33   0.09    -0.01   0.06   0.03
  15   1    -0.20   0.14   0.00     0.25  -0.15  -0.01     0.05  -0.18   0.03
  16   1     0.24   0.04   0.07    -0.25  -0.05  -0.08    -0.16  -0.11  -0.08
  17   6    -0.05   0.01  -0.01     0.08  -0.03   0.04    -0.07   0.28  -0.09
  18   1    -0.03  -0.07   0.09     0.03   0.04  -0.04    -0.05   0.27  -0.20
  19   1    -0.00   0.12   0.02     0.04  -0.08   0.01    -0.09  -0.10  -0.07
  20   1    -0.01  -0.03  -0.12     0.01   0.01   0.10     0.11   0.18   0.19
  21   1     0.02   0.01  -0.01    -0.03  -0.01   0.03     0.04   0.05  -0.05
  22   6     0.00   0.00   0.01     0.01  -0.01  -0.00    -0.01   0.00   0.00
  23   8     0.00   0.00   0.00     0.01  -0.01   0.00    -0.01  -0.01   0.00
  24   7    -0.00   0.01  -0.01     0.02   0.00   0.00    -0.01   0.00  -0.00
  25   1    -0.01  -0.02   0.01     0.01  -0.01   0.01    -0.00   0.00  -0.00
  26   1    -0.01  -0.04   0.02    -0.00  -0.01   0.02    -0.00   0.00  -0.01
  27   7    -0.00   0.00   0.01     0.00  -0.01  -0.00    -0.00   0.00   0.00
  28   1     0.00   0.02  -0.01     0.00   0.02  -0.01    -0.00  -0.00   0.00
  29   1     0.00   0.01  -0.00     0.00   0.00  -0.01     0.00   0.00   0.00
  30   6    -0.00   0.00  -0.00     0.00   0.00  -0.00    -0.00   0.00  -0.00
  31   8    -0.00   0.00  -0.00     0.00  -0.00  -0.00    -0.00   0.00  -0.00
  32   7     0.00  -0.00   0.01     0.00  -0.00   0.00     0.00  -0.00   0.01
  33   1    -0.00   0.00  -0.00    -0.00   0.00  -0.00    -0.00   0.00  -0.01
  34   1    -0.01   0.00  -0.01    -0.00   0.00  -0.00    -0.01   0.00  -0.01
  35   7     0.00  -0.00   0.00     0.00   0.00   0.00     0.00  -0.00   0.00
  36   1    -0.00   0.00  -0.00    -0.00   0.00  -0.00    -0.01   0.00  -0.01
  37   1    -0.00   0.00  -0.00    -0.00   0.00  -0.00    -0.00   0.00  -0.00
  38   6     0.00  -0.03   0.03    -0.01  -0.02   0.02     0.00   0.01  -0.01
  39   8    -0.00  -0.01   0.02    -0.02   0.02   0.01    -0.00   0.02  -0.01
  40   7    -0.08   0.26  -0.11    -0.09   0.20  -0.08     0.00   0.02  -0.02
  41   1     0.13  -0.27   0.10     0.10  -0.21   0.09     0.01  -0.02   0.01
  42   1     0.20  -0.55   0.19     0.15  -0.46   0.16     0.02  -0.07   0.02
  43   7     0.02  -0.03  -0.01    -0.00  -0.02   0.03     0.01  -0.01  -0.01
  44   1    -0.09   0.14  -0.02    -0.06   0.09  -0.00    -0.01   0.02  -0.01
  45   1    -0.02   0.04  -0.01    -0.02   0.03   0.00    -0.00   0.00  -0.00
  46   6     0.01  -0.00   0.00    -0.01   0.00   0.00    -0.00  -0.00   0.00
  47   8     0.01  -0.01   0.00    -0.02   0.01  -0.00     0.00  -0.00   0.01
  48   7    -0.00   0.01   0.00     0.00  -0.01  -0.00     0.00   0.00   0.00
  49   1     0.01  -0.00  -0.00    -0.02   0.01   0.00     0.00  -0.00   0.00
  50   1     0.00  -0.00  -0.00    -0.01   0.00   0.00     0.00   0.00   0.00
  51   7     0.00   0.01   0.01    -0.00  -0.01  -0.01     0.00   0.00   0.00
  52   1     0.00   0.00   0.00    -0.00  -0.00  -0.00     0.00  -0.00   0.00
  53   1     0.01  -0.00  -0.00    -0.01   0.00   0.01     0.00   0.01  -0.00
                     34                     35                     36
                        a                      a                      a 
 Frequencies --   341.5958               351.9813               372.1960
 Red. masses --     3.6504                 2.5096                 3.2631
 Frc consts  --     0.0000                 0.0000                 0.0000
 IR Inten    --   471.2951                 8.7607               160.5561
 Raman Activ --     0.0000                 0.0000                 0.0000
 Depolar     --     0.0000                 0.0000                 0.0000
 Atom AN      X      Y      Z        X      Y      Z        X      Y      Z
   1   8     0.00   0.01  -0.01     0.11   0.04  -0.12    -0.03   0.00   0.02
   2   6     0.00   0.00  -0.00     0.07   0.04  -0.02    -0.02   0.00  -0.00
   3   1     0.00  -0.00  -0.00     0.03   0.02   0.00    -0.01  -0.00  -0.00
   4   1     0.00  -0.00   0.00     0.00   0.01  -0.01    -0.00   0.00  -0.00
   5   6     0.00  -0.00  -0.00    -0.08   0.00  -0.06     0.02  -0.00   0.01
   6   1     0.00   0.00  -0.00    -0.02  -0.01  -0.08     0.01   0.01   0.02
   7   1     0.00  -0.00  -0.00    -0.07  -0.00   0.01     0.02  -0.00  -0.00
   8   7    -0.00  -0.00   0.00    -0.09  -0.00   0.02     0.00  -0.00  -0.01
   9   6    -0.00  -0.00   0.00    -0.03  -0.10   0.07    -0.01   0.00  -0.01
  10   1    -0.00   0.00  -0.00    -0.01  -0.06   0.02    -0.00  -0.00   0.00
  11   1    -0.00  -0.00   0.00     0.02  -0.02   0.03     0.00   0.00  -0.01
  12   1     0.00  -0.00   0.00    -0.01  -0.03   0.02    -0.01   0.00  -0.00
  13   6    -0.00  -0.01  -0.00     0.08  -0.12   0.05    -0.01   0.02  -0.01
  14   1    -0.00  -0.00   0.00     0.08   0.21   0.14    -0.01  -0.04  -0.02
  15   1    -0.00  -0.00   0.00     0.23  -0.22   0.03    -0.03   0.04  -0.01
  16   1    -0.00  -0.00  -0.00    -0.20  -0.11  -0.11     0.04   0.02   0.02
  17   6    -0.00   0.00   0.00    -0.08   0.13   0.03     0.01  -0.01   0.00
  18   1    -0.00   0.01  -0.00    -0.07  -0.24   0.34     0.00   0.04  -0.04
  19   1    -0.00  -0.00  -0.00     0.05   0.47   0.10    -0.01  -0.06  -0.01
  20   1     0.00   0.00   0.00    -0.05  -0.10  -0.43     0.01   0.02   0.06
  21   1     0.00   0.00  -0.00     0.03   0.01  -0.00    -0.00   0.01  -0.02
  22   6    -0.00   0.01  -0.01     0.00  -0.00   0.01    -0.00  -0.05   0.04
  23   8     0.00   0.00  -0.01     0.00  -0.00   0.01    -0.00  -0.03   0.02
  24   7    -0.00  -0.01   0.01    -0.01   0.01  -0.02     0.03   0.08  -0.06
  25   1     0.00   0.00  -0.00    -0.01  -0.01   0.00    -0.01  -0.03   0.03
  26   1     0.00   0.01  -0.01    -0.00  -0.02   0.01    -0.02  -0.08   0.06
  27   7    -0.00  -0.01   0.01    -0.00   0.02  -0.01     0.01   0.10  -0.09
  28   1     0.00   0.03  -0.03    -0.00  -0.03   0.03    -0.02  -0.27   0.21
  29   1     0.00   0.01  -0.01    -0.00  -0.01   0.01    -0.00  -0.06   0.06
  30   6     0.07  -0.03   0.09     0.01  -0.00  -0.00     0.04  -0.01  -0.02
  31   8     0.00  -0.01   0.03     0.01  -0.00  -0.00     0.04  -0.02  -0.01
  32   7    -0.17   0.03  -0.27     0.00  -0.01  -0.00     0.01  -0.05  -0.02
  33   1     0.14  -0.07   0.24    -0.00  -0.00  -0.00    -0.02   0.00  -0.03
  34   1     0.32  -0.10   0.44     0.00  -0.00   0.00     0.01  -0.01   0.00
  35   7    -0.16   0.13  -0.21    -0.00   0.00   0.00    -0.01   0.03   0.01
  36   1     0.35  -0.20   0.42    -0.01   0.00  -0.00    -0.04   0.02  -0.01
  37   1     0.12  -0.08   0.19     0.00   0.00   0.00     0.01   0.03   0.00
  38   6    -0.00   0.00   0.00    -0.00  -0.01   0.01     0.00   0.00  -0.00
  39   8    -0.00   0.00   0.00     0.00  -0.02   0.01    -0.00  -0.00  -0.00
  40   7    -0.00   0.00  -0.00     0.02  -0.01   0.01    -0.01   0.00  -0.00
  41   1     0.00  -0.00   0.00    -0.00   0.01  -0.01     0.00  -0.00   0.00
  42   1     0.00  -0.01   0.00    -0.01   0.05  -0.01    -0.00  -0.00  -0.00
  43   7     0.00  -0.00  -0.00     0.00   0.00  -0.01    -0.00  -0.00  -0.00
  44   1    -0.01   0.01  -0.00    -0.01   0.00  -0.01     0.00  -0.01  -0.00
  45   1    -0.00   0.00  -0.00     0.01  -0.00  -0.00     0.00   0.00  -0.00
  46   6    -0.01   0.00  -0.00    -0.01   0.02   0.00    -0.07   0.06   0.02
  47   8     0.00  -0.00   0.01     0.01   0.01  -0.01     0.13  -0.08  -0.03
  48   7     0.01  -0.01   0.00     0.03  -0.03   0.00     0.21  -0.15  -0.02
  49   1    -0.03   0.02   0.01    -0.10   0.05   0.01    -0.63   0.37   0.10
  50   1    -0.02   0.01  -0.00    -0.04   0.02   0.01    -0.29   0.19   0.06
  51   7     0.02   0.00   0.01    -0.00   0.03   0.01    -0.12   0.09   0.05
  52   1    -0.01   0.01   0.00     0.00   0.01   0.00     0.00   0.01  -0.01
  53   1     0.01   0.00   0.00     0.01  -0.01  -0.00     0.04  -0.04  -0.02
                     37                     38                     39
                        a                      a                      a 
 Frequencies --   377.5724               406.5666               415.6965
 Red. masses --     7.7249                 3.1452                 3.1011
 Frc consts  --     0.0000                 0.0000                 0.0000
 IR Inten    --     3.8436               222.3492               332.4161
 Raman Activ --     0.0000                 0.0000                 0.0000
 Depolar     --     0.0000                 0.0000                 0.0000
 Atom AN      X      Y      Z        X      Y      Z        X      Y      Z
   1   8    -0.09  -0.11   0.12    -0.00   0.01   0.01     0.03   0.00  -0.02
   2   6     0.00  -0.25   0.10    -0.00   0.01  -0.00     0.01   0.02  -0.00
   3   1    -0.01  -0.12  -0.07     0.00   0.00  -0.00     0.00   0.01   0.01
   4   1     0.05  -0.13   0.09     0.00   0.00  -0.00    -0.00   0.01  -0.01
   5   6     0.18   0.08   0.26     0.00  -0.00  -0.01    -0.01   0.00  -0.00
   6   1     0.06   0.11   0.22     0.00   0.00   0.00    -0.00  -0.00  -0.01
   7   1     0.21  -0.02   0.03     0.00  -0.00  -0.00    -0.01   0.00   0.00
   8   7     0.02   0.06  -0.01    -0.01  -0.00  -0.01    -0.02  -0.00   0.03
   9   6     0.20  -0.12   0.03    -0.01  -0.01   0.00     0.03   0.00  -0.01
  10   1     0.04  -0.12   0.01    -0.00  -0.00   0.00     0.01  -0.00  -0.02
  11   1     0.14  -0.01   0.04    -0.00  -0.00   0.00     0.01  -0.00  -0.01
  12   1     0.04  -0.04   0.00    -0.01  -0.00   0.00     0.02   0.01   0.00
  13   6    -0.29   0.21  -0.08    -0.00  -0.00  -0.01     0.01  -0.02   0.04
  14   1    -0.09   0.12  -0.12    -0.00  -0.01  -0.00     0.00  -0.01   0.02
  15   1    -0.11   0.06   0.00    -0.00   0.00  -0.00     0.01  -0.01   0.01
  16   1    -0.15   0.06   0.03     0.01   0.00  -0.00     0.01  -0.01   0.01
  17   6    -0.00   0.16  -0.40    -0.00   0.01   0.01    -0.03  -0.02  -0.00
  18   1     0.05  -0.03  -0.07    -0.00   0.00   0.00    -0.00  -0.01  -0.01
  19   1    -0.08   0.16  -0.12     0.00   0.00   0.00    -0.02  -0.01  -0.01
  20   1     0.03   0.01  -0.27     0.00   0.00   0.00    -0.01  -0.01  -0.00
  21   1    -0.00   0.00   0.02    -0.01  -0.01   0.01     0.00   0.01  -0.05
  22   6    -0.00  -0.00   0.00    -0.01   0.10  -0.09    -0.02  -0.00   0.02
  23   8    -0.00  -0.01   0.01    -0.01   0.04  -0.06    -0.01   0.01   0.01
  24   7    -0.00  -0.00  -0.00    -0.05  -0.14   0.13    -0.02   0.03  -0.05
  25   1    -0.00  -0.00   0.00     0.03   0.06  -0.05    -0.02  -0.04   0.03
  26   1     0.00   0.00  -0.00     0.03   0.15  -0.09    -0.01  -0.03   0.01
  27   7    -0.00  -0.00  -0.00     0.01  -0.21   0.17     0.02   0.05  -0.03
  28   1    -0.00   0.00  -0.00     0.07   0.59  -0.48    -0.01  -0.16   0.12
  29   1    -0.00  -0.00  -0.00     0.02   0.07  -0.06     0.01  -0.00   0.02
  30   6     0.00  -0.00  -0.00     0.01  -0.01  -0.01    -0.00   0.00   0.00
  31   8     0.00  -0.00  -0.00     0.01  -0.01  -0.00    -0.00   0.00   0.00
  32   7     0.00   0.00  -0.00     0.02  -0.01   0.01    -0.01   0.00  -0.01
  33   1     0.00   0.00   0.00    -0.02   0.01  -0.02     0.01  -0.01   0.01
  34   1     0.00  -0.00   0.00    -0.00   0.00  -0.02     0.00  -0.00   0.01
  35   7    -0.00   0.00   0.00    -0.00  -0.00   0.01    -0.00   0.00  -0.00
  36   1    -0.00  -0.00   0.00    -0.05   0.02  -0.04     0.02  -0.01   0.02
  37   1     0.00   0.00   0.00     0.01   0.01   0.01    -0.01  -0.00  -0.01
  38   6     0.01  -0.00  -0.00     0.02  -0.02  -0.00     0.06  -0.07  -0.03
  39   8     0.00  -0.00  -0.00     0.03  -0.01   0.01     0.10  -0.06   0.01
  40   7    -0.02   0.01   0.00    -0.02   0.03  -0.02    -0.09   0.13  -0.09
  41   1    -0.00  -0.01   0.02     0.01  -0.02   0.01     0.04  -0.10   0.05
  42   1    -0.00  -0.04   0.01    -0.00  -0.02  -0.00     0.00  -0.10   0.00
  43   7    -0.01   0.01   0.02    -0.05   0.07   0.01    -0.18   0.23   0.05
  44   1     0.01  -0.02   0.01     0.11  -0.20   0.01     0.40  -0.76   0.05
  45   1     0.00  -0.00   0.01     0.02  -0.01   0.01     0.05   0.03  -0.00
  46   6    -0.00  -0.00  -0.01     0.00   0.00   0.01    -0.00   0.01  -0.00
  47   8    -0.01  -0.00  -0.00     0.05  -0.02   0.01    -0.01   0.01  -0.00
  48   7    -0.01  -0.01  -0.01     0.08  -0.06  -0.01    -0.02   0.01   0.01
  49   1    -0.01  -0.01  -0.00    -0.30   0.17   0.05     0.08  -0.05  -0.01
  50   1    -0.00  -0.00   0.00    -0.11   0.07   0.03     0.03  -0.02  -0.00
  51   7     0.00  -0.00  -0.01    -0.03   0.03   0.00     0.00  -0.00  -0.00
  52   1     0.00  -0.00  -0.00    -0.03   0.02   0.00    -0.00   0.00  -0.00
  53   1    -0.01   0.00  -0.00     0.00  -0.02   0.00     0.01  -0.01  -0.00
                     40                     41                     42
                        a                      a                      a 
 Frequencies --   430.4467               447.7176               456.0924
 Red. masses --     8.5579                 1.9108                 8.1960
 Frc consts  --     0.0000                 0.0000                 0.0000
 IR Inten    --     0.3406                 5.2788                 3.9237
 Raman Activ --     0.0000                 0.0000                 0.0000
 Depolar     --     0.0000                 0.0000                 0.0000
 Atom AN      X      Y      Z        X      Y      Z        X      Y      Z
   1   8     0.11   0.12  -0.20     0.00   0.00   0.00    -0.00  -0.00  -0.00
   2   6     0.12  -0.05   0.12     0.00   0.00   0.00    -0.00   0.00  -0.02
   3   1     0.03  -0.05  -0.05    -0.00   0.00   0.00     0.00   0.00  -0.01
   4   1     0.05  -0.07   0.09    -0.00   0.00   0.00    -0.00   0.00  -0.00
   5   6    -0.22   0.11   0.11     0.01  -0.00   0.00    -0.03   0.01  -0.02
   6   1    -0.06   0.01  -0.08     0.00   0.00   0.01    -0.01  -0.02  -0.03
   7   1    -0.15   0.04   0.06     0.01  -0.00   0.00    -0.04   0.02  -0.00
   8   7    -0.23   0.08   0.15    -0.01  -0.01  -0.01     0.04   0.03   0.04
   9   6     0.36   0.01  -0.22    -0.01  -0.01  -0.01     0.02   0.04   0.06
  10   1     0.08  -0.09  -0.23    -0.00  -0.00  -0.00     0.01   0.02   0.02
  11   1     0.15   0.01  -0.06     0.00  -0.00  -0.01    -0.00   0.01   0.02
  12   1     0.23   0.05  -0.00    -0.00   0.00  -0.00     0.01  -0.00   0.02
  13   6     0.10  -0.01   0.24     0.01   0.01   0.00    -0.05  -0.04  -0.00
  14   1     0.03  -0.05   0.15     0.00   0.00   0.01    -0.02  -0.01  -0.02
  15   1     0.06   0.03   0.02     0.01   0.01  -0.00    -0.03  -0.03   0.02
  16   1     0.10   0.01   0.06     0.00   0.00   0.00    -0.02  -0.02  -0.02
  17   6    -0.30  -0.19  -0.15    -0.01   0.01   0.01     0.03  -0.03  -0.04
  18   1     0.02  -0.07  -0.11    -0.01   0.00   0.00     0.03  -0.02  -0.02
  19   1    -0.14  -0.12  -0.07     0.00   0.00   0.00    -0.01  -0.01  -0.02
  20   1    -0.14  -0.06  -0.02     0.00   0.00   0.00    -0.00  -0.01  -0.02
  21   1     0.03   0.02   0.00     0.00   0.00  -0.00    -0.00  -0.00   0.00
  22   6     0.01   0.00  -0.01     0.00  -0.00   0.00    -0.00   0.00  -0.00
  23   8     0.00   0.01  -0.01     0.00   0.00   0.00    -0.00  -0.00  -0.00
  24   7     0.01  -0.01   0.00     0.00   0.00  -0.01    -0.00   0.00   0.00
  25   1     0.00   0.01  -0.01    -0.00  -0.00   0.00     0.00   0.00  -0.00
  26   1     0.00  -0.01   0.00     0.00  -0.00  -0.00    -0.00  -0.00   0.00
  27   7    -0.01  -0.01   0.00    -0.00   0.01  -0.00     0.00  -0.00  -0.00
  28   1    -0.00   0.02  -0.01    -0.00  -0.02   0.02     0.00   0.00  -0.00
  29   1    -0.00  -0.00  -0.00    -0.00  -0.00  -0.00     0.00  -0.00   0.00
  30   6     0.00  -0.00  -0.00     0.00  -0.09  -0.03     0.00   0.28   0.10
  31   8     0.00  -0.00   0.00     0.01  -0.10  -0.03    -0.00   0.31   0.12
  32   7    -0.00  -0.00   0.00     0.13   0.04   0.05    -0.22  -0.31   0.15
  33   1    -0.00   0.00  -0.00    -0.32   0.27  -0.34    -0.08  -0.18  -0.26
  34   1     0.00  -0.00   0.00     0.40  -0.02   0.28    -0.14  -0.16   0.28
  35   7     0.00  -0.00  -0.00    -0.15   0.05  -0.03     0.24  -0.09  -0.31
  36   1    -0.00   0.00  -0.00    -0.34   0.11  -0.19     0.16   0.07  -0.29
  37   1     0.00  -0.00   0.00     0.28   0.00   0.39     0.08  -0.29   0.05
  38   6     0.02   0.01  -0.03     0.00  -0.00  -0.00     0.00   0.00  -0.00
  39   8     0.01   0.00  -0.04     0.00  -0.00  -0.00    -0.00   0.00   0.00
  40   7    -0.05  -0.02   0.01    -0.00   0.00  -0.00     0.00   0.00  -0.00
  41   1    -0.03   0.02   0.04     0.00  -0.00   0.00    -0.00   0.00  -0.00
  42   1    -0.03  -0.05  -0.01    -0.00  -0.00  -0.00     0.00  -0.00   0.00
  43   7     0.02  -0.00   0.06    -0.00   0.00   0.00    -0.00   0.00  -0.00
  44   1    -0.02   0.09   0.03     0.00  -0.01   0.00     0.00  -0.00  -0.00
  45   1    -0.03  -0.01   0.03    -0.00   0.00  -0.00     0.00   0.00  -0.00
  46   6     0.00  -0.00   0.01     0.01   0.01  -0.00    -0.03  -0.04   0.00
  47   8     0.01  -0.00   0.00     0.01   0.02   0.01    -0.03  -0.04  -0.02
  48   7     0.01  -0.00   0.01    -0.02   0.00   0.02     0.02   0.01  -0.03
  49   1    -0.02   0.01   0.01     0.05  -0.04  -0.01     0.01   0.03   0.01
  50   1    -0.01   0.01   0.00     0.01  -0.01   0.02    -0.01   0.02  -0.03
  51   7    -0.00   0.01   0.01    -0.01  -0.01  -0.02     0.01   0.01   0.05
  52   1    -0.00   0.00   0.00     0.01  -0.01  -0.02     0.01  -0.00   0.03
  53   1    -0.00   0.00   0.00    -0.01  -0.01  -0.00     0.01   0.02   0.00
                     43                     44                     45
                        a                      a                      a 
 Frequencies --   462.1598               467.7084               470.8432
 Red. masses --     7.9365                 4.1272                 2.7113
 Frc consts  --     0.0000                 0.0000                 0.0000
 IR Inten    --     6.4191                12.0591                14.5448
 Raman Activ --     0.0000                 0.0000                 0.0000
 Depolar     --     0.0000                 0.0000                 0.0000
 Atom AN      X      Y      Z        X      Y      Z        X      Y      Z
   1   8     0.02  -0.00   0.02    -0.01  -0.00   0.02    -0.01   0.02  -0.01
   2   6     0.00  -0.03   0.07    -0.02   0.02  -0.01     0.01  -0.02   0.01
   3   1    -0.01  -0.01   0.03    -0.01   0.01   0.02     0.00  -0.01  -0.01
   4   1    -0.00  -0.01   0.02    -0.01   0.02  -0.02     0.01  -0.01   0.01
   5   6     0.17  -0.04   0.11     0.04  -0.02  -0.01    -0.02   0.01   0.01
   6   1     0.06   0.13   0.19     0.01   0.01   0.02    -0.01  -0.00  -0.01
   7   1     0.23  -0.10   0.01     0.03  -0.01  -0.01    -0.02   0.01   0.01
   8   7    -0.24  -0.17  -0.21    -0.00  -0.03  -0.02    -0.00   0.02   0.00
   9   6    -0.12  -0.21  -0.32    -0.06  -0.02  -0.00     0.03   0.01  -0.01
  10   1    -0.04  -0.11  -0.09    -0.02  -0.00   0.02     0.01   0.00  -0.01
  11   1     0.03  -0.06  -0.12    -0.01  -0.01  -0.01     0.01   0.00   0.01
  12   1    -0.03  -0.00  -0.08    -0.03   0.00  -0.01     0.02  -0.00   0.00
  13   6     0.26   0.23   0.03     0.01   0.02  -0.00    -0.00  -0.00  -0.00
  14   1     0.09   0.06   0.14     0.00   0.01   0.00    -0.00  -0.00  -0.00
  15   1     0.15   0.15  -0.12     0.01   0.01  -0.01    -0.00  -0.00   0.00
  16   1     0.13   0.10   0.10     0.00   0.01   0.01     0.00  -0.00  -0.00
  17   6    -0.18   0.16   0.21     0.01   0.04   0.04    -0.01  -0.02  -0.02
  18   1    -0.17   0.09   0.11    -0.02   0.01   0.02     0.01  -0.00  -0.02
  19   1     0.05   0.06   0.10     0.01   0.02   0.02    -0.00  -0.02  -0.01
  20   1     0.01   0.07   0.10     0.02   0.01   0.01    -0.01  -0.00   0.00
  21   1     0.00   0.01  -0.03    -0.00   0.00  -0.01     0.00   0.00   0.01
  22   6    -0.02  -0.01  -0.01     0.06  -0.01   0.05    -0.01  -0.03   0.06
  23   8    -0.03   0.00  -0.00     0.07  -0.03   0.04     0.02  -0.09   0.02
  24   7     0.00   0.02   0.02     0.00  -0.06  -0.03    -0.02  -0.02   0.05
  25   1     0.02  -0.00   0.01    -0.04   0.33  -0.32     0.01   0.47  -0.41
  26   1    -0.01   0.02   0.02    -0.02  -0.34   0.10    -0.05  -0.39   0.19
  27   7     0.02  -0.01  -0.01    -0.09   0.09  -0.02     0.02   0.11  -0.04
  28   1     0.01  -0.01  -0.01    -0.05   0.09   0.00     0.01   0.07  -0.06
  29   1     0.01   0.00   0.01    -0.07  -0.07   0.01    -0.01  -0.07   0.07
  30   6     0.00   0.06   0.02     0.00   0.00   0.00    -0.00  -0.00  -0.00
  31   8    -0.01   0.06   0.03    -0.00   0.00   0.00     0.00  -0.00  -0.00
  32   7    -0.05  -0.06   0.02    -0.00  -0.00   0.00     0.00   0.00  -0.00
  33   1     0.00  -0.05  -0.04    -0.00  -0.00  -0.00    -0.00   0.01   0.00
  34   1    -0.04  -0.03   0.04    -0.00  -0.00   0.00     0.01   0.00  -0.00
  35   7     0.05  -0.01  -0.06     0.00   0.00  -0.00    -0.00   0.00   0.00
  36   1     0.04   0.01  -0.04     0.01  -0.00   0.00    -0.00  -0.00   0.00
  37   1     0.00  -0.05  -0.01    -0.00  -0.00  -0.00    -0.00   0.00  -0.00
  38   6    -0.02  -0.00   0.01     0.16  -0.00  -0.09    -0.11  -0.00   0.05
  39   8    -0.00   0.01   0.03     0.06  -0.08  -0.21    -0.01   0.08   0.16
  40   7     0.02   0.01  -0.00    -0.15  -0.10   0.03     0.09   0.07  -0.04
  41   1     0.03  -0.03  -0.02    -0.28   0.37   0.13     0.23  -0.34  -0.08
  42   1     0.01   0.03   0.01    -0.14  -0.32  -0.06     0.09   0.27   0.03
  43   7    -0.01  -0.01  -0.02     0.06   0.16   0.20    -0.06  -0.11  -0.12
  44   1    -0.01  -0.01  -0.01     0.09   0.07   0.11    -0.04  -0.08  -0.06
  45   1     0.00   0.00  -0.01    -0.04  -0.05   0.11     0.02   0.01  -0.06
  46   6     0.01   0.02  -0.01    -0.00   0.00   0.00    -0.01   0.00   0.00
  47   8     0.00   0.02   0.01     0.00  -0.00  -0.01     0.00  -0.00  -0.02
  48   7    -0.03  -0.04   0.02     0.00   0.00  -0.00     0.01   0.01  -0.00
  49   1    -0.00  -0.04  -0.01     0.01  -0.00   0.00     0.02  -0.00   0.00
  50   1     0.01  -0.02   0.02    -0.00   0.00  -0.00    -0.00   0.01  -0.01
  51   7    -0.02  -0.03  -0.03     0.00  -0.01   0.00    -0.01   0.00   0.01
  52   1     0.00  -0.01  -0.02     0.03  -0.01  -0.00     0.02  -0.01  -0.00
  53   1     0.00  -0.03  -0.01    -0.01   0.01   0.00     0.01   0.00  -0.00
                     46                     47                     48
                        a                      a                      a 
 Frequencies --   477.4130               482.2592               483.0097
 Red. masses --     7.1957                 7.3795                 8.0127
 Frc consts  --     0.0000                 0.0000                 0.0000
 IR Inten    --    17.2521                19.8621                 2.3380
 Raman Activ --     0.0000                 0.0000                 0.0000
 Depolar     --     0.0000                 0.0000                 0.0000
 Atom AN      X      Y      Z        X      Y      Z        X      Y      Z
   1   8    -0.01   0.04  -0.03    -0.03  -0.00   0.03    -0.06  -0.11   0.17
   2   6    -0.00  -0.01   0.03    -0.02  -0.00  -0.02    -0.09   0.08  -0.20
   3   1    -0.01  -0.00   0.03    -0.00  -0.01  -0.05     0.01   0.02  -0.14
   4   1    -0.01   0.01  -0.01     0.01  -0.03   0.03     0.01  -0.03  -0.00
   5   6     0.00  -0.07   0.00    -0.02   0.11   0.03     0.05   0.37  -0.01
   6   1     0.00  -0.03  -0.01    -0.00   0.05   0.04     0.02   0.19   0.16
   7   1    -0.01  -0.02   0.01     0.03   0.02  -0.00     0.18   0.06  -0.05
   8   7     0.01  -0.07   0.01    -0.04   0.09  -0.05    -0.09   0.29  -0.12
   9   6    -0.04   0.02  -0.04     0.05  -0.05   0.02     0.09  -0.16   0.17
  10   1    -0.01   0.02  -0.00     0.01  -0.04  -0.01     0.01  -0.12   0.03
  11   1    -0.02  -0.00  -0.03     0.04   0.00   0.04     0.10   0.00   0.18
  12   1    -0.01   0.02  -0.01     0.01  -0.04   0.00     0.01  -0.14   0.03
  13   6    -0.02   0.04   0.04     0.05  -0.03  -0.06     0.14  -0.19  -0.19
  14   1    -0.01   0.02  -0.00     0.02  -0.02   0.01     0.04  -0.09   0.03
  15   1    -0.01   0.03  -0.00     0.02  -0.03  -0.01     0.07  -0.13  -0.01
  16   1    -0.01   0.02   0.04     0.03  -0.01  -0.05     0.07  -0.08  -0.20
  17   6     0.02   0.03  -0.01    -0.05  -0.06   0.03    -0.13  -0.13   0.13
  18   1    -0.01   0.02  -0.00     0.00  -0.02  -0.00     0.00  -0.06   0.03
  19   1    -0.00   0.02  -0.00     0.01  -0.05   0.01     0.04  -0.12   0.05
  20   1     0.03   0.01  -0.01    -0.06  -0.02   0.04    -0.16  -0.05   0.10
  21   1     0.00   0.01   0.00    -0.01   0.00   0.00    -0.03  -0.04   0.04
  22   6     0.22   0.07   0.11     0.13   0.07   0.11     0.01  -0.00  -0.02
  23   8     0.28   0.03   0.07     0.22  -0.02   0.02    -0.01   0.02   0.01
  24   7    -0.03  -0.18  -0.25    -0.07  -0.12  -0.17     0.02  -0.00   0.00
  25   1    -0.23  -0.14   0.02    -0.19  -0.05  -0.02     0.01  -0.01   0.01
  26   1     0.10  -0.06  -0.26     0.06  -0.09  -0.18     0.00   0.01   0.01
  27   7    -0.32   0.10   0.14    -0.19   0.11   0.13    -0.01  -0.01  -0.01
  28   1    -0.17   0.15   0.14    -0.09   0.10   0.09    -0.01  -0.00   0.01
  29   1    -0.19  -0.03  -0.10    -0.11  -0.01  -0.04    -0.01  -0.00  -0.01
  30   6     0.00   0.01   0.00     0.00   0.00  -0.00    -0.00  -0.00   0.00
  31   8    -0.00   0.01   0.00    -0.00   0.00   0.00     0.00  -0.00  -0.00
  32   7    -0.00  -0.01   0.00    -0.00  -0.00  -0.00     0.00   0.00   0.00
  33   1     0.00  -0.01  -0.00     0.00  -0.00  -0.00    -0.00   0.00   0.00
  34   1    -0.01  -0.00   0.00    -0.00  -0.00  -0.00     0.00   0.00  -0.00
  35   7     0.01   0.00  -0.00     0.00   0.00  -0.00    -0.00  -0.00   0.00
  36   1     0.01   0.00  -0.00     0.00   0.00   0.00    -0.00  -0.00   0.00
[...]
  44   1    -0.08  -0.03   0.12    -0.01  -0.00   0.01    -0.00  -0.00   0.00
  45   1    -0.21  -0.36  -0.82    -0.02  -0.03  -0.06    -0.00  -0.00  -0.00
  46   6    -0.00   0.00  -0.00    -0.00  -0.01   0.01    -0.00  -0.01  -0.01
  47   8     0.00  -0.00   0.00     0.00   0.01   0.00     0.00   0.01   0.00
  48   7    -0.00  -0.00   0.00     0.01   0.02  -0.00    -0.12  -0.17  -0.05
  49   1    -0.00  -0.00   0.00     0.00   0.01  -0.02    -0.05  -0.12   0.19
  50   1     0.01   0.01   0.00    -0.06  -0.08  -0.00     0.51   0.77   0.01
  51   7    -0.01  -0.00  -0.02     0.10  -0.01   0.19     0.03   0.04   0.04
  52   1    -0.00  -0.00  -0.00     0.08   0.17   0.04    -0.06  -0.15  -0.02
  53   1     0.04   0.01   0.07    -0.47  -0.11  -0.78    -0.06  -0.01  -0.11
                    142                    143                    144
                        a                      a                      a 
 Frequencies --  3438.8697              3496.7267              3497.3786
 Red. masses --     1.9397                 1.4517                 1.4371
 Frc consts  --     0.0000                 0.0000                 0.0000
 IR Inten    --   281.6348                17.3055                43.4810
 Raman Activ --     0.0000                 0.0000                 0.0000
 Depolar     --     0.0000                 0.0000                 0.0000
 Atom AN      X      Y      Z        X      Y      Z        X      Y      Z
   1   8     0.00  -0.00  -0.00     0.00  -0.00  -0.00     0.00  -0.00  -0.00
   2   6     0.00   0.00  -0.00     0.00  -0.00  -0.00    -0.00  -0.00   0.00
   3   1    -0.00   0.00  -0.00     0.00  -0.00  -0.00     0.00  -0.00   0.00
   4   1    -0.00  -0.00   0.00    -0.00   0.00   0.00     0.00   0.00   0.00
   5   6    -0.00  -0.00  -0.00    -0.00  -0.00  -0.00    -0.00  -0.00  -0.00
   6   1    -0.00   0.00   0.00     0.00  -0.00  -0.00     0.00   0.00   0.00
   7   1     0.00   0.00   0.00     0.00   0.00   0.00     0.00   0.00   0.00
   8   7    -0.00  -0.00  -0.00    -0.00   0.00   0.00     0.00  -0.00  -0.00
   9   6     0.00   0.00  -0.00     0.00   0.00  -0.00     0.00   0.00  -0.00
  10   1    -0.00   0.00   0.00     0.00  -0.00  -0.00     0.00  -0.00   0.00
  11   1     0.00  -0.00   0.00    -0.00   0.00  -0.00    -0.00  -0.00   0.00
  12   1    -0.00   0.00   0.00    -0.00  -0.00   0.00    -0.00  -0.00   0.00
  13   6    -0.00  -0.00  -0.00    -0.00  -0.00  -0.00    -0.00  -0.00  -0.00
  14   1    -0.00   0.00  -0.00     0.00  -0.00  -0.00     0.00   0.00   0.00
  15   1     0.00   0.00   0.00     0.00   0.00   0.00     0.00   0.00   0.00
  16   1     0.00  -0.00   0.00    -0.00   0.00  -0.00     0.00  -0.00  -0.00
  17   6    -0.00  -0.00  -0.00     0.00  -0.00  -0.00    -0.00  -0.00  -0.00
  18   1     0.00   0.00   0.00     0.00   0.00   0.00     0.00   0.00   0.00
  19   1    -0.00   0.00   0.00    -0.00  -0.00   0.00    -0.00  -0.00   0.00
  20   1     0.00  -0.00   0.00    -0.00   0.00  -0.00    -0.00  -0.00   0.00
  21   1    -0.01   0.01   0.00    -0.00   0.00   0.00    -0.00   0.00   0.00
  22   6    -0.00  -0.00  -0.00    -0.00   0.00   0.00    -0.00  -0.00  -0.00
  23   8     0.00  -0.00   0.00    -0.00  -0.00  -0.00     0.00   0.00   0.00
  24   7     0.00  -0.00  -0.00    -0.00   0.00   0.00     0.00  -0.00  -0.00
  25   1     0.00   0.00   0.00    -0.00  -0.01  -0.01     0.00   0.00   0.00
  26   1     0.00  -0.00   0.00     0.02   0.00   0.01    -0.00  -0.00  -0.00
  27   7     0.00  -0.01  -0.01     0.00  -0.00  -0.00    -0.00  -0.00  -0.00
  28   1     0.02   0.00   0.01    -0.00  -0.00  -0.00     0.00   0.00   0.00
  29   1    -0.03   0.02   0.02    -0.00   0.00   0.00    -0.00   0.00   0.00
  30   6    -0.00   0.01   0.00    -0.00   0.00   0.00     0.00   0.00   0.00
  31   8     0.00  -0.00  -0.00    -0.00  -0.00  -0.00     0.00   0.00  -0.00
  32   7    -0.00  -0.00   0.00     0.00  -0.00  -0.00     0.10  -0.05  -0.07
  33   1     0.02   0.02  -0.01    -0.00  -0.00   0.00    -0.35  -0.32   0.13
  34   1     0.00  -0.02  -0.00    -0.00   0.00   0.00    -0.04   0.50   0.14
  35   7     0.00  -0.00  -0.00    -0.00  -0.00   0.00     0.09   0.09  -0.02
  36   1    -0.00  -0.01  -0.01     0.00   0.00   0.00    -0.00  -0.46  -0.22
  37   1    -0.02   0.01   0.01     0.00  -0.00  -0.00    -0.33   0.13   0.28
  38   6    -0.00   0.00   0.00    -0.00   0.00   0.00    -0.00  -0.00   0.00
  39   8     0.00  -0.00  -0.00     0.00   0.00  -0.00     0.00   0.00  -0.00
  40   7     0.00   0.00   0.00     0.02   0.08   0.16     0.00   0.00   0.00
  41   1    -0.00  -0.00  -0.00    -0.58  -0.30  -0.08    -0.00  -0.00   0.00
  42   1     0.00   0.00  -0.00     0.50  -0.01  -0.53     0.00  -0.00  -0.00
  43   7     0.00  -0.00   0.00     0.00   0.00  -0.01     0.00   0.00  -0.00
  44   1    -0.00   0.00  -0.00    -0.02  -0.01   0.03    -0.00  -0.00   0.00
  45   1    -0.00   0.00  -0.00     0.00   0.00   0.01    -0.00  -0.00  -0.00
  46   6     0.00   0.01   0.00     0.00   0.00   0.00    -0.00   0.00   0.00
  47   8    -0.00  -0.00  -0.00    -0.00  -0.00  -0.00    -0.00  -0.00  -0.00
  48   7     0.02   0.03   0.02    -0.00  -0.00  -0.00     0.00   0.00   0.00
  49   1     0.01   0.04  -0.06    -0.00  -0.00   0.00     0.00   0.00  -0.00
  50   1    -0.09  -0.14  -0.00     0.00   0.00   0.00    -0.00  -0.01   0.00
  51   7     0.12   0.22   0.08    -0.00  -0.00  -0.00     0.00   0.00  -0.00
  52   1    -0.35  -0.85  -0.16     0.00   0.00   0.00    -0.00  -0.00  -0.00
  53   1    -0.08  -0.00  -0.14     0.00   0.00   0.00     0.00   0.00   0.00
                    145                    146                    147
                        a                      a                      a 
 Frequencies --  3499.7814              3501.4714              3524.3878
 Red. masses --     1.4502                 1.4632                 1.9275
 Frc consts  --     0.0000                 0.0000                 0.0000
 IR Inten    --    19.0238                 3.8945                14.1927
 Raman Activ --     0.0000                 0.0000                 0.0000
 Depolar     --     0.0000                 0.0000                 0.0000
 Atom AN      X      Y      Z        X      Y      Z        X      Y      Z
   1   8     0.00  -0.00  -0.00     0.00  -0.00   0.00     0.00  -0.00  -0.00
   2   6    -0.00  -0.00   0.00     0.00  -0.00  -0.00    -0.00  -0.00  -0.00
   3   1     0.00  -0.00   0.00    -0.00   0.00   0.00     0.00   0.00   0.00
   4   1     0.00  -0.00  -0.00    -0.00  -0.00  -0.00     0.00  -0.00   0.00
   5   6    -0.00   0.00   0.00    -0.00   0.00   0.00     0.00   0.00   0.00
   6   1     0.00  -0.00  -0.00     0.00   0.00   0.00     0.00  -0.00  -0.00
   7   1    -0.00  -0.00  -0.00    -0.00  -0.00  -0.00    -0.00  -0.00  -0.00
   8   7     0.00  -0.00  -0.00    -0.00  -0.00  -0.00    -0.00  -0.00   0.00
   9   6    -0.00  -0.00   0.00     0.00   0.00   0.00    -0.00  -0.00   0.00
  10   1     0.00   0.00   0.00    -0.00   0.00   0.00     0.00   0.00   0.00
  11   1     0.00   0.00  -0.00     0.00  -0.00   0.00    -0.00   0.00  -0.00
  12   1     0.00   0.00  -0.00     0.00   0.00  -0.00     0.00   0.00  -0.00
  13   6    -0.00   0.00   0.00    -0.00   0.00   0.00     0.00   0.00   0.00
  14   1     0.00  -0.00  -0.00     0.00   0.00   0.00    -0.00  -0.00   0.00
  15   1    -0.00  -0.00   0.00    -0.00   0.00   0.00    -0.00  -0.00  -0.00
  16   1    -0.00  -0.00  -0.00     0.00  -0.00  -0.00    -0.00   0.00  -0.00
  17   6     0.00   0.00   0.00     0.00   0.00   0.00    -0.00  -0.00   0.00
  18   1    -0.00   0.00   0.00    -0.00  -0.00  -0.00    -0.00  -0.00   0.00
  19   1    -0.00  -0.00  -0.00    -0.00   0.00  -0.00     0.00  -0.00  -0.00
  20   1    -0.00  -0.00  -0.00     0.00  -0.00   0.00    -0.00   0.00  -0.00
  21   1    -0.01   0.01   0.00    -0.00   0.00   0.00    -0.01   0.00   0.00
  22   6    -0.00   0.00  -0.00     0.00  -0.00  -0.00     0.00   0.00   0.00
  23   8     0.00   0.00   0.00     0.00   0.00   0.00    -0.00  -0.00  -0.00
  24   7    -0.15   0.09   0.05     0.00  -0.00  -0.00    -0.00   0.00  -0.00
  25   1    -0.04  -0.45  -0.51     0.00   0.00   0.00     0.00  -0.00  -0.00
  26   1     0.61   0.09   0.35    -0.00  -0.00  -0.00     0.01   0.00   0.00
  27   7     0.01  -0.00   0.00     0.00   0.00   0.00    -0.00  -0.00  -0.00
  28   1    -0.04  -0.01  -0.02    -0.00  -0.00  -0.00     0.00   0.00   0.00
  29   1    -0.01   0.01   0.01     0.00  -0.00  -0.00    -0.00   0.00   0.00
  30   6    -0.00   0.00   0.00     0.00  -0.00  -0.00    -0.00   0.00   0.00
  31   8     0.00  -0.00  -0.00    -0.00   0.00   0.00     0.00  -0.00  -0.00
  32   7     0.00  -0.00  -0.00     0.10  -0.04  -0.07     0.00  -0.00  -0.00
  33   1    -0.00  -0.00   0.00    -0.33  -0.31   0.12    -0.00  -0.00   0.00
  34   1    -0.00   0.00   0.00    -0.04   0.46   0.12    -0.00   0.00   0.00
  35   7     0.00   0.00   0.00    -0.10  -0.09   0.02    -0.00   0.00   0.00
  36   1    -0.00  -0.00  -0.00     0.00   0.47   0.22    -0.00  -0.00  -0.00
  37   1    -0.00   0.00   0.00     0.36  -0.14  -0.30     0.00  -0.00  -0.00
  38   6     0.00   0.00  -0.00     0.00  -0.00  -0.00     0.00  -0.00   0.01
  39   8    -0.00   0.00   0.00    -0.00   0.00   0.00     0.00   0.00  -0.00
  40   7    -0.00  -0.00  -0.00    -0.00  -0.00  -0.00     0.02   0.01  -0.00
  41   1     0.02   0.01   0.00     0.00   0.00   0.00    -0.07  -0.04  -0.01
  42   1    -0.01   0.00   0.01    -0.00   0.00   0.00    -0.01   0.00   0.01
  43   7     0.00   0.00   0.00     0.00   0.00  -0.00    -0.13  -0.05   0.23
  44   1    -0.00  -0.00   0.01    -0.00  -0.00   0.00     0.52   0.25  -0.76
  45   1    -0.00  -0.01  -0.02    -0.00  -0.00  -0.00    -0.04  -0.06  -0.10
  46   6    -0.00   0.00   0.00    -0.00   0.00   0.00    -0.00  -0.00   0.00
  47   8     0.00  -0.00  -0.00    -0.00  -0.00  -0.00     0.00   0.00   0.00
  48   7    -0.00  -0.00  -0.00     0.00   0.00   0.00    -0.00  -0.00  -0.00
  49   1    -0.00  -0.00   0.00     0.00   0.01  -0.02    -0.00  -0.00   0.00
  50   1     0.00   0.00   0.00    -0.01  -0.02   0.00     0.00   0.00   0.00
  51   7     0.00   0.00  -0.00     0.00   0.01   0.00     0.00  -0.00   0.00
  52   1    -0.00  -0.00   0.00    -0.01  -0.03  -0.01     0.00   0.00   0.00
  53   1     0.00   0.00   0.00    -0.00   0.00  -0.00    -0.00  -0.00  -0.00
                    148                    149                    150
                        a                      a                      a 
 Frequencies --  3534.4027              3550.7738              3561.3111
 Red. masses --     1.8962                 1.9993                 2.1911
 Frc consts  --     0.0000                 0.0000                 0.0000
 IR Inten    --    12.9996                34.8287                13.8828
 Raman Activ --     0.0000                 0.0000                 0.0000
 Depolar     --     0.0000                 0.0000                 0.0000
 Atom AN      X      Y      Z        X      Y      Z        X      Y      Z
   1   8     0.00  -0.00   0.00     0.00  -0.00  -0.00    -0.00   0.00   0.00
   2   6     0.00  -0.00  -0.00     0.00   0.00   0.00     0.00   0.00  -0.00
   3   1    -0.00   0.00  -0.00    -0.00   0.00   0.00    -0.00  -0.00  -0.00
   4   1    -0.00  -0.00   0.00    -0.00  -0.00  -0.00    -0.00  -0.00   0.00
   5   6     0.00   0.00   0.00     0.00   0.00   0.00     0.00   0.00   0.00
   6   1    -0.00  -0.00   0.00     0.00   0.00   0.00    -0.00  -0.00  -0.00
   7   1    -0.00  -0.00  -0.00    -0.00  -0.00  -0.00    -0.00  -0.00  -0.00
   8   7    -0.00  -0.00   0.00    -0.00  -0.00  -0.00    -0.00  -0.00   0.00
   9   6     0.00  -0.00   0.00     0.00   0.00   0.00    -0.00  -0.00   0.00
  10   1    -0.00   0.00   0.00    -0.00   0.00   0.00    -0.00  -0.00  -0.00
  11   1     0.00   0.00  -0.00     0.00  -0.00   0.00     0.00  -0.00  -0.00
  12   1     0.00   0.00  -0.00     0.00   0.00  -0.00     0.00   0.00  -0.00
  13   6     0.00   0.00   0.00     0.00   0.00   0.00     0.00   0.00   0.00
  14   1    -0.00   0.00   0.00     0.00   0.00   0.00    -0.00  -0.00  -0.00
  15   1    -0.00  -0.00  -0.00    -0.00  -0.00  -0.00    -0.00  -0.00  -0.00
  16   1     0.00   0.00   0.00     0.00   0.00   0.00     0.00  -0.00   0.00
  17   6     0.00   0.00   0.00     0.00   0.00   0.00     0.00   0.00   0.00
  18   1    -0.00  -0.00  -0.00    -0.00  -0.00  -0.00     0.00  -0.00  -0.00
  19   1    -0.00   0.00   0.00     0.00   0.00   0.00     0.00   0.00  -0.00
  20   1    -0.00   0.00  -0.00     0.00  -0.00   0.00     0.00   0.00  -0.00
  21   1    -0.00   0.00   0.00    -0.00   0.00   0.00     0.00  -0.00  -0.00
  22   6    -0.01   0.00   0.00     0.00  -0.00  -0.00     0.00   0.00   0.00
  23   8     0.00   0.00   0.00     0.00  -0.00   0.00    -0.00  -0.00  -0.00
  24   7     0.01   0.02   0.02    -0.00  -0.00  -0.00     0.00   0.00   0.00
  25   1    -0.00  -0.06  -0.07     0.00   0.00   0.00    -0.00  -0.00  -0.00
  26   1    -0.02  -0.00  -0.01     0.00   0.00   0.00    -0.00  -0.00  -0.00
  27   7    -0.24  -0.05  -0.09     0.00   0.00   0.00    -0.00  -0.00  -0.00
  28   1     0.85   0.22   0.38    -0.01  -0.00  -0.00     0.00   0.00   0.00
  29   1     0.05  -0.04  -0.04    -0.00   0.00   0.00     0.00  -0.00  -0.00
  30   6     0.00   0.00  -0.00    -0.00   0.00   0.00    -0.01  -0.00   0.00
  31   8    -0.00  -0.00  -0.00     0.00  -0.00  -0.00     0.00   0.00  -0.00
  32   7    -0.00   0.00   0.00    -0.00  -0.01  -0.00    -0.09  -0.22   0.00
  33   1     0.00   0.00  -0.00     0.00   0.00  -0.00     0.41   0.35  -0.15
  34   1     0.00  -0.00  -0.00    -0.00   0.02   0.00    -0.06   0.50   0.14
  35   7     0.00  -0.00  -0.00     0.00  -0.00  -0.00    -0.08   0.12   0.11
  36   1     0.00   0.00   0.00     0.00   0.01   0.01    -0.02  -0.34  -0.15
  37   1    -0.00   0.00   0.00    -0.00   0.00   0.00     0.32  -0.11  -0.26
  38   6     0.00   0.00  -0.00    -0.00  -0.00   0.00     0.00   0.00  -0.00
  39   8    -0.00  -0.00   0.00     0.00  -0.00  -0.00    -0.00  -0.00   0.00
  40   7    -0.00  -0.00  -0.00    -0.00  -0.00  -0.00     0.00   0.00  -0.00
  41   1     0.00   0.00   0.00     0.00   0.00   0.00    -0.01  -0.01  -0.00
  42   1    -0.00  -0.00   0.00     0.00  -0.00  -0.00    -0.01   0.00   0.01
  43   7     0.00   0.00  -0.00     0.00   0.00   0.00     0.00   0.00  -0.00
  44   1    -0.00  -0.00   0.00    -0.00  -0.00   0.00    -0.00  -0.00   0.00
  45   1     0.00   0.00   0.00    -0.00  -0.00  -0.00     0.00   0.00   0.00
  46   6    -0.00  -0.00   0.00     0.00   0.01  -0.00     0.00  -0.00  -0.00
  47   8     0.00   0.00   0.00    -0.00  -0.00   0.00    -0.00   0.00   0.00
  48   7    -0.00   0.00  -0.00     0.07   0.17  -0.21    -0.00  -0.00   0.00
  49   1    -0.00  -0.00   0.01    -0.16  -0.47   0.79     0.00   0.00  -0.00
  50   1     0.00   0.00   0.00    -0.12  -0.17  -0.02     0.00   0.00   0.00
  51   7     0.00  -0.00  -0.00     0.00   0.01   0.00    -0.00  -0.00   0.00
  52   1     0.00   0.01   0.00    -0.01  -0.03  -0.00     0.00   0.00   0.00
  53   1    -0.00  -0.00  -0.00    -0.00  -0.00  -0.00    -0.00  -0.00  -0.00
                    151                    152                    153
                        a                      a                      a 
 Frequencies --  3561.6924              3564.8570              3567.0015
 Red. masses --     2.1773                 2.1815                 2.1778
 Frc consts  --     0.0000                 0.0000                 0.0000
 IR Inten    --     9.6939                15.4991                16.1704
 Raman Activ --     0.0000                 0.0000                 0.0000
 Depolar     --     0.0000                 0.0000                 0.0000
 Atom AN      X      Y      Z        X      Y      Z        X      Y      Z
   1   8    -0.00   0.00  -0.00    -0.00   0.00   0.00    -0.00   0.00   0.00
   2   6     0.00  -0.00  -0.00     0.00   0.00  -0.00    -0.00  -0.00  -0.00
   3   1     0.00  -0.00  -0.00    -0.00   0.00  -0.00     0.00   0.00  -0.00
   4   1    -0.00   0.00   0.00     0.00   0.00   0.00     0.00   0.00   0.00
   5   6    -0.00  -0.00  -0.00     0.00   0.00   0.00     0.00   0.00   0.00
   6   1    -0.00   0.00  -0.00    -0.00  -0.00   0.00     0.00   0.00   0.00
   7   1     0.00   0.00   0.00    -0.00  -0.00  -0.00    -0.00  -0.00  -0.00
   8   7     0.00   0.00  -0.00    -0.00  -0.00   0.00    -0.00  -0.00  -0.00
   9   6     0.00   0.00  -0.00     0.00   0.00  -0.00    -0.00   0.00  -0.00
  10   1     0.00  -0.00  -0.00    -0.00   0.00  -0.00     0.00   0.00   0.00
  11   1    -0.00  -0.00  -0.00    -0.00   0.00   0.00    -0.00   0.00   0.00
  12   1    -0.00  -0.00   0.00    -0.00  -0.00   0.00    -0.00  -0.00   0.00
  13   6    -0.00  -0.00  -0.00     0.00   0.00   0.00     0.00   0.00   0.00
  14   1     0.00  -0.00  -0.00    -0.00   0.00   0.00     0.00   0.00   0.00
  15   1     0.00   0.00   0.00    -0.00  -0.00  -0.00    -0.00  -0.00   0.00
  16   1    -0.00  -0.00   0.00     0.00   0.00   0.00     0.00   0.00   0.00
  17   6     0.00   0.00  -0.00     0.00   0.00   0.00     0.00   0.00   0.00
  18   1     0.00   0.00  -0.00    -0.00  -0.00  -0.00    -0.00  -0.00  -0.00
  19   1     0.00   0.00   0.00     0.00   0.00   0.00     0.00   0.00  -0.00
  20   1     0.00  -0.00   0.00    -0.00   0.00   0.00     0.00   0.00   0.00
  21   1     0.00  -0.00  -0.00     0.01  -0.00  -0.00     0.00  -0.00  -0.00
  22   6    -0.00   0.00   0.00    -0.01  -0.01  -0.01    -0.00  -0.00  -0.00
  23   8     0.00   0.00   0.00     0.00   0.00   0.00     0.00   0.00   0.00
  24   7     0.00   0.00   0.00    -0.16  -0.14  -0.21    -0.00  -0.00  -0.00
  25   1    -0.00  -0.01  -0.01     0.02   0.46   0.51     0.00   0.01   0.01
  26   1    -0.01  -0.00  -0.00     0.58   0.07   0.31     0.01   0.00   0.00
  27   7     0.00   0.00   0.00    -0.02  -0.00  -0.01    -0.00  -0.00  -0.00
  28   1    -0.00  -0.00  -0.00     0.07   0.02   0.03     0.00   0.00   0.00
  29   1     0.00  -0.00  -0.00     0.01  -0.00  -0.00     0.00  -0.00  -0.00
  30   6     0.00   0.00  -0.00     0.00  -0.00  -0.00    -0.00   0.01   0.01
  31   8    -0.00  -0.00   0.00    -0.00   0.00  -0.00     0.00  -0.00  -0.00
  32   7     0.00   0.00  -0.00    -0.00  -0.00   0.00     0.06   0.17  -0.00
  33   1    -0.01  -0.01   0.00     0.01   0.00  -0.00    -0.29  -0.25   0.11
  34   1     0.00  -0.01  -0.00    -0.00   0.01   0.00     0.05  -0.38  -0.11
  35   7     0.00  -0.00  -0.00     0.00  -0.00  -0.00    -0.11   0.16   0.15
  36   1     0.00   0.00   0.00     0.00   0.00   0.00    -0.02  -0.47  -0.21
  37   1    -0.00   0.00   0.00    -0.00   0.00   0.00     0.42  -0.14  -0.34
  38   6     0.01   0.00  -0.00    -0.00   0.00  -0.00    -0.00   0.00   0.00
  39   8    -0.00  -0.00   0.00     0.00  -0.00  -0.00    -0.00  -0.00   0.00
  40   7     0.27   0.08  -0.10     0.00   0.00  -0.00    -0.00  -0.00   0.00
  41   1    -0.61  -0.33  -0.11    -0.01  -0.00  -0.00     0.00   0.00   0.00
  42   1    -0.42   0.03   0.48    -0.00   0.00   0.01     0.00  -0.00  -0.00
  43   7     0.01   0.00  -0.02     0.00  -0.00  -0.00     0.00  -0.00  -0.00
  44   1    -0.04  -0.02   0.05    -0.00  -0.00   0.00    -0.00  -0.00   0.00
  45   1     0.00   0.00   0.01     0.00   0.00   0.01     0.00   0.00   0.00
  46   6     0.00   0.00   0.00    -0.00  -0.00   0.00    -0.00   0.00   0.00
  47   8    -0.00  -0.00  -0.00     0.00   0.00   0.00     0.00   0.00  -0.00
  48   7     0.00   0.00  -0.00    -0.00  -0.00   0.00     0.00   0.01  -0.00
  49   1    -0.00  -0.00   0.00     0.00   0.00  -0.00    -0.00  -0.01   0.01
  50   1    -0.00  -0.00  -0.00     0.00   0.00   0.00    -0.01  -0.01  -0.00
  51   7    -0.00  -0.00  -0.00     0.00  -0.00   0.00     0.00   0.00   0.00
  52   1     0.00   0.00   0.00     0.00   0.00   0.00    -0.00  -0.01  -0.00
  53   1     0.00   0.00   0.00    -0.00  -0.00  -0.00    -0.00   0.00  -0.00
