 Entering Gaussian System
 *********************************************
 Gaussian 98:
 frequency output generated by the xtb code
 *********************************************
                         Standard orientation:
 --------------------------------------------------------------------
  Center     Atomic     Atomic              Coordinates (Angstroms)
  Number     Number      Type              X           Y           Z
 --------------------------------------------------------------------
    1          8             0        1.327088    0.205748    1.065700
    2          6             0        1.281780   -0.813053    2.025294
    3          1             0        2.283255   -1.254764    2.144924
    4          1             0        1.006470   -0.347521    2.975532
    5          6             0        0.343004   -1.970545    1.665878
    6          1             0        0.552797   -2.805138    2.338121
    7          1             0        0.574169   -2.268928    0.639392
    8          7             0       -1.112733   -1.682404    1.731539
    9          6             0       -1.535891   -1.349050    3.101470
   10          1             0       -1.202795   -2.114310    3.798716
   11          1             0       -2.624055   -1.285887    3.109895
   12          1             0       -1.144762   -0.376713    3.390739
   13          6             0       -1.847002   -2.882518    1.296481
   14          1             0       -1.613890   -3.726930    1.942626
   15          1             0       -1.578325   -3.130960    0.271690
   16          1             0       -2.915137   -2.674886    1.348792
   17          6             0       -1.475650   -0.573704    0.831095
   18          1             0       -1.093285    0.361946    1.231085
   19          1             0       -2.561370   -0.511677    0.787770
   20          1             0       -1.061407   -0.749722   -0.158994
   21          1             0        1.249542   -0.221249    0.168801
   22          6             0        1.725208   -0.866358   -2.163507
   23          8             0        0.979291   -1.124313   -1.207847
   24          7             0        1.613519   -1.481922   -3.351475
   25          1             0        0.916974   -2.190626   -3.487288
   26          1             0        2.254182   -1.236013   -4.092456
   27          7             0        2.711543    0.045112   -2.084405
   28          1             0        3.276686    0.224599   -2.900745
   29          1             0        2.843740    0.578034   -1.244117
   30          6             0       -0.649171    2.757261    2.829450
   31          8             0       -1.332586    1.743752    2.941909
   32          7             0        0.517528    2.763277    2.157183
   33          1             0        0.836803    1.915601    1.701995
   34          1             0        1.055546    3.602085    2.043913
   35          7             0       -1.044410    3.944710    3.357624
   36          1             0       -0.430403    4.738215    3.385637
   37          1             0       -1.840223    3.948729    3.970225
   38          6             0        4.455465   -0.012703   -5.772123
   39          8             0        3.746013   -0.185097   -4.790130
   40          7             0        5.737724    0.413040   -5.669667
   41          1             0        6.148995    0.467588   -4.754794
   42          1             0        6.352843    0.433530   -6.462534
   43          7             0        4.010037   -0.235940   -7.032423
   44          1             0        4.550486    0.023773   -7.837362
   45          1             0        3.032618   -0.425840   -7.165775
   46          6             0       -4.892639    0.185258    2.335043
   47          8             0       -4.315102   -0.841648    1.996902
   48          7             0       -4.235570    1.315692    2.674758
   49          1             0       -3.224580    1.331688    2.745705
   50          1             0       -4.739424    2.113931    3.015010
   51          7             0       -6.247372    0.247797    2.394652
   52          1             0       -6.738360    1.106800    2.560521
   53          1             0       -6.771033   -0.541970    2.062362
 --------------------------------------------------------------------
     1 basis functions        1 primitive gaussians
     1 alpha electrons        1 beta electrons

 Harmonic frequencies (cm**-1), IR intensities (km*mol⁻¹),
 Raman scattering activities (A**4/amu), Raman depolarization ratios,
 reduced masses (AMU), force constants (mDyne/A) and normal coordinates:
                      1                      2                      3
                        a                      a                      a 
 Frequencies --     9.2349                11.7846                12.8846
 Red. masses --    12.3763                11.0653                12.2121
 Frc consts  --     0.0000                 0.0000                 0.0000
 IR Inten    --     1.0283                 0.1727                 1.1244
 Raman Activ --     0.0000                 0.0000                 0.0000
 Depolar     --     0.0000                 0.0000                 0.0000
 Atom AN      X      Y      Z        X      Y      Z        X      Y      Z
   1   8     0.09  -0.13   0.14     0.03  -0.02   0.05     0.02   0.13   0.11
   2   6     0.01  -0.09   0.16     0.02  -0.01   0.05    -0.00   0.09   0.07
   3   1    -0.00  -0.03   0.06     0.01  -0.00   0.02     0.00   0.03   0.03
   4   1    -0.01  -0.01   0.04     0.00   0.00   0.01    -0.01   0.02   0.02
   5   6     0.00  -0.07   0.15     0.02  -0.01   0.06     0.04   0.08   0.00
   6   1    -0.01  -0.02   0.05     0.00  -0.00   0.02     0.01   0.02  -0.00
   7   1     0.01  -0.03   0.05     0.01  -0.01   0.02     0.02   0.03  -0.00
   8   7     0.01  -0.04   0.07     0.02  -0.01   0.04     0.03   0.04  -0.05
   9   6    -0.05   0.02   0.04     0.01   0.02   0.03    -0.03  -0.03  -0.05
  10   1    -0.03   0.01   0.02     0.00   0.01   0.01    -0.01  -0.02  -0.02
  11   1    -0.02   0.01  -0.01     0.00   0.00   0.01    -0.01  -0.01  -0.03
  12   1    -0.01   0.00   0.01     0.00   0.01   0.00    -0.02  -0.01   0.01
  13   6    -0.00  -0.04   0.07     0.03  -0.02   0.06     0.07   0.05  -0.13
  14   1    -0.01  -0.01   0.03     0.01  -0.00   0.02     0.02   0.01  -0.05
  15   1     0.01  -0.02   0.03     0.01  -0.01   0.02     0.03   0.03  -0.04
  16   1     0.00  -0.00   0.00     0.01  -0.01   0.01     0.02   0.01  -0.05
  17   6     0.07  -0.06   0.01     0.03  -0.03   0.01     0.04   0.08  -0.01
  18   1     0.02  -0.02   0.00     0.01  -0.01  -0.00     0.00   0.02   0.02
  19   1     0.02  -0.01  -0.01     0.01  -0.01   0.00     0.01   0.02  -0.01
  20   1     0.03  -0.03   0.01     0.01  -0.01   0.01     0.02   0.04   0.00
  21   1     0.03  -0.04   0.04     0.01  -0.01   0.01     0.02   0.04   0.02
  22   6     0.07  -0.10   0.12     0.02  -0.02   0.04     0.08   0.12   0.04
  23   8     0.15  -0.19   0.17     0.04  -0.03   0.05     0.10   0.16   0.06
  24   7     0.08  -0.12   0.13    -0.03   0.03   0.02     0.08   0.10   0.06
  25   1     0.04  -0.05   0.05    -0.01   0.01   0.00     0.02   0.02   0.02
  26   1     0.01  -0.02   0.03    -0.01   0.01   0.00     0.02   0.02   0.02
  27   7    -0.01  -0.02   0.08     0.06  -0.06   0.06     0.09   0.13   0.02
  28   1    -0.01   0.01   0.02     0.01  -0.01   0.02     0.03   0.03   0.00
  29   1    -0.00  -0.00   0.02     0.02  -0.03   0.02     0.03   0.04   0.00
  30   6     0.06  -0.02  -0.05    -0.02   0.02  -0.06    -0.05  -0.02   0.21
  31   8     0.03   0.01  -0.07    -0.02   0.03  -0.05    -0.06  -0.04   0.14
  32   7     0.10  -0.07   0.02    -0.00   0.01  -0.04    -0.04   0.04   0.25
  33   1     0.03  -0.03   0.02     0.00  -0.00  -0.00    -0.01   0.02   0.05
  34   1     0.04  -0.02   0.01    -0.00   0.00  -0.02    -0.01   0.02   0.09
  35   7     0.07   0.01  -0.10    -0.04   0.04  -0.12    -0.07  -0.07   0.32
  36   1     0.03  -0.00  -0.02    -0.01   0.01  -0.03    -0.02  -0.02   0.11
  37   1     0.01   0.01  -0.04    -0.01   0.02  -0.04    -0.02  -0.03   0.08
  38   6    -0.18   0.13  -0.02    -0.04   0.03  -0.00    -0.05  -0.16  -0.12
  39   8    -0.11   0.07   0.04    -0.01   0.01   0.02     0.08  -0.06  -0.02
  40   7    -0.25   0.34  -0.11     0.13  -0.50  -0.01    -0.01  -0.24  -0.34
  41   1    -0.05   0.12  -0.04     0.07  -0.26  -0.01     0.03  -0.05  -0.11
  42   1    -0.08   0.11  -0.04     0.02  -0.14  -0.02    -0.03  -0.09  -0.11
  43   7    -0.24   0.04   0.02    -0.27   0.59  -0.02    -0.24  -0.24  -0.05
  44   1    -0.09   0.02  -0.01    -0.07   0.17   0.00    -0.09  -0.09  -0.04
  45   1    -0.06  -0.03   0.02    -0.10   0.28   0.01    -0.07  -0.05   0.03
  46   6     0.02   0.08  -0.20     0.00  -0.02  -0.05    -0.02  -0.04  -0.12
  47   8     0.01   0.06  -0.15     0.02  -0.02  -0.02     0.00  -0.02  -0.16
  48   7     0.03   0.08  -0.23    -0.01  -0.00  -0.08    -0.04  -0.05  -0.04
  49   1     0.01   0.01  -0.04    -0.00   0.00  -0.02    -0.01  -0.01   0.00
  50   1     0.01   0.03  -0.08    -0.01  -0.00  -0.03    -0.02  -0.02  -0.01
  51   7     0.02   0.12  -0.29     0.00  -0.03  -0.06    -0.02  -0.05  -0.20
  52   1     0.01   0.04  -0.10    -0.00  -0.01  -0.03    -0.01  -0.02  -0.05
  53   1     0.00   0.03  -0.08     0.00  -0.01  -0.01    -0.00  -0.01  -0.07
                      4                      5                      6
                        a                      a                      a 
 Frequencies --    21.7445                24.6100                30.3895
 Red. masses --    12.1131                12.2896                11.8511
 Frc consts  --     0.0000                 0.0000                 0.0000
 IR Inten    --     2.3402                 2.8652                 1.5533
 Raman Activ --     0.0000                 0.0000                 0.0000
 Depolar     --     0.0000                 0.0000                 0.0000
 Atom AN      X      Y      Z        X      Y      Z        X      Y      Z
   1   8     0.02   0.10  -0.02    -0.11   0.11  -0.14     0.03   0.08  -0.01
   2   6     0.03   0.13   0.03    -0.07   0.15  -0.07     0.02   0.07  -0.01
   3   1     0.01   0.05   0.02    -0.02   0.05  -0.01     0.01   0.02   0.00
   4   1    -0.00   0.05   0.00    -0.03   0.05  -0.03     0.00   0.02  -0.00
   5   6     0.08   0.08   0.06    -0.02   0.09  -0.03     0.03   0.06  -0.01
   6   1     0.03   0.03   0.03     0.00   0.04   0.00     0.01   0.02  -0.00
   7   1     0.03   0.01   0.02    -0.00   0.02  -0.00     0.01   0.02  -0.00
   8   7     0.08   0.03   0.04    -0.04   0.05  -0.04     0.03   0.05  -0.01
   9   6     0.03   0.01   0.03    -0.06   0.01  -0.04     0.03   0.02  -0.00
  10   1     0.01   0.01   0.01    -0.02   0.00  -0.01     0.01   0.00  -0.00
  11   1     0.01  -0.00   0.00    -0.02  -0.00  -0.01     0.01   0.00  -0.00
  12   1     0.00   0.01   0.01    -0.02   0.00  -0.00     0.00   0.01   0.00
  13   6     0.12  -0.01   0.03     0.01   0.03  -0.06     0.05   0.04  -0.03
  14   1     0.04   0.00   0.01     0.01   0.01  -0.02     0.02   0.01  -0.01
  15   1     0.04   0.00   0.01     0.01   0.01  -0.02     0.01   0.02  -0.01
  16   1     0.03  -0.01   0.00     0.00  -0.00  -0.02     0.01   0.01  -0.01
  17   6     0.05   0.01   0.03    -0.06   0.04  -0.03     0.02   0.05   0.01
  18   1     0.00   0.01   0.01    -0.02   0.01  -0.01     0.00   0.02   0.01
  19   1     0.01  -0.01   0.00    -0.02   0.01  -0.01     0.01   0.01   0.00
  20   1     0.02   0.00   0.01    -0.02   0.02  -0.01     0.01   0.02   0.00
  21   1     0.01   0.01   0.00    -0.01   0.01  -0.03    -0.00   0.02  -0.00
  22   6    -0.11  -0.04  -0.04     0.11  -0.20  -0.01     0.01  -0.09   0.01
  23   8    -0.02  -0.03   0.04     0.05  -0.12  -0.04    -0.09   0.10  -0.01
  24   7    -0.16  -0.16   0.02     0.33  -0.48   0.11    -0.27   0.12  -0.07
  25   1    -0.04  -0.05   0.03     0.10  -0.15   0.04    -0.17   0.13  -0.05
  26   1    -0.07  -0.04  -0.02     0.09  -0.14   0.03    -0.06   0.00  -0.02
  27   7    -0.17   0.02  -0.19     0.01  -0.09  -0.09     0.43  -0.56   0.14
  28   1    -0.07   0.01  -0.07     0.01  -0.04  -0.02     0.11  -0.16   0.03
  29   1    -0.04   0.03  -0.07    -0.04   0.03  -0.05     0.16  -0.17   0.05
  30   6     0.03   0.00   0.12    -0.02   0.01   0.08    -0.03   0.03   0.04
  31   8     0.02   0.00   0.05    -0.01  -0.00   0.06    -0.02   0.03   0.04
  32   7     0.01   0.05   0.10    -0.10   0.08  -0.05    -0.04   0.05   0.03
  33   1     0.00   0.02   0.01    -0.03   0.03  -0.03    -0.01   0.02   0.00
  34   1     0.01   0.01   0.05    -0.02   0.02   0.00    -0.02   0.02   0.01
  35   7     0.07  -0.05   0.26     0.04  -0.05   0.25    -0.04   0.02   0.06
  36   1     0.02  -0.01   0.08     0.01  -0.01   0.06    -0.01   0.01   0.02
  37   1     0.02  -0.02   0.07     0.02  -0.03   0.08    -0.01   0.00   0.02
  38   6    -0.07  -0.01  -0.00     0.03   0.03  -0.04    -0.03  -0.00  -0.00
  39   8    -0.37   0.01  -0.21     0.14  -0.25  -0.02    -0.00  -0.25  -0.02
  40   7    -0.07  -0.12   0.35    -0.00   0.15  -0.06    -0.11   0.20   0.04
  41   1    -0.08  -0.05   0.12     0.02  -0.01  -0.02    -0.03   0.04   0.01
  42   1     0.04  -0.04   0.14    -0.02   0.09  -0.03    -0.03   0.10   0.01
  43   7     0.25   0.05  -0.13    -0.06   0.26  -0.05    -0.01   0.08  -0.03
  44   1     0.13   0.01   0.01    -0.04   0.13  -0.01    -0.01   0.06  -0.00
  45   1     0.07   0.04  -0.10    -0.01   0.05  -0.00     0.01  -0.03  -0.01
  46   6     0.03  -0.02  -0.13    -0.04   0.03   0.06     0.00  -0.03  -0.04
  47   8     0.05  -0.06  -0.05    -0.06   0.05  -0.00     0.02  -0.03  -0.03
  48   7     0.02  -0.02  -0.16    -0.02   0.01   0.12    -0.02  -0.03  -0.02
  49   1     0.00  -0.01  -0.02    -0.01   0.00   0.02    -0.01  -0.00   0.00
  50   1     0.00   0.00  -0.07    -0.00   0.00   0.04    -0.01  -0.01  -0.01
  51   7     0.03   0.00  -0.26    -0.04   0.05   0.09     0.00  -0.05  -0.08
  52   1     0.01   0.00  -0.09    -0.01   0.01   0.04    -0.00  -0.01  -0.02
  53   1     0.01  -0.00  -0.07    -0.01   0.02   0.02     0.00  -0.01  -0.02
                      7                      8                      9
                        a                      a                      a 
 Frequencies --    33.0604                34.9619                43.0357
 Red. masses --    12.2307                12.6054                13.4823
 Frc consts  --     0.0000                 0.0000                 0.0000
 IR Inten    --     0.1351                 0.8105                 1.2697
 Raman Activ --     0.0000                 0.0000                 0.0000
 Depolar     --     0.0000                 0.0000                 0.0000
 Atom AN      X      Y      Z        X      Y      Z        X      Y      Z
   1   8    -0.09   0.01  -0.10    -0.08   0.05  -0.17    -0.07   0.00  -0.07
   2   6     0.03  -0.02  -0.12    -0.02   0.11  -0.06    -0.06   0.05  -0.01
   3   1     0.01  -0.01  -0.07     0.00   0.05  -0.01    -0.02   0.02   0.01
   4   1     0.04  -0.02  -0.02    -0.01   0.05  -0.03    -0.03   0.03  -0.01
   5   6    -0.03  -0.00  -0.05     0.05   0.04   0.03    -0.04   0.02   0.04
   6   1     0.00  -0.00  -0.02     0.03   0.03   0.02    -0.01   0.02   0.02
   7   1    -0.03  -0.00  -0.02     0.01  -0.00   0.01    -0.01  -0.00   0.01
   8   7    -0.02   0.03   0.05     0.03  -0.05   0.06    -0.05   0.00   0.02
   9   6     0.10   0.15   0.05     0.04  -0.06   0.06    -0.06   0.05   0.00
  10   1     0.05   0.07   0.03     0.02  -0.02   0.02    -0.01   0.03   0.01
  11   1     0.03   0.04   0.04     0.01  -0.02   0.02    -0.02   0.01   0.00
  12   1     0.03   0.06  -0.02     0.01  -0.02   0.02    -0.02   0.02  -0.01
  13   6    -0.07   0.00   0.21     0.09  -0.09   0.08    -0.03  -0.03   0.07
  14   1    -0.01   0.02   0.08     0.05  -0.02   0.02    -0.01   0.00   0.03
  15   1    -0.04  -0.03   0.06     0.02  -0.02   0.02    -0.01  -0.02   0.02
  16   1    -0.02   0.01   0.08     0.02  -0.05   0.03    -0.01  -0.01   0.02
  17   6    -0.07  -0.04  -0.02    -0.05  -0.08   0.05    -0.06  -0.04  -0.03
  18   1    -0.01  -0.00  -0.03    -0.02  -0.02   0.01    -0.02  -0.00  -0.02
  19   1    -0.02  -0.01   0.01    -0.01  -0.04   0.02    -0.02  -0.01  -0.01
  20   1    -0.04  -0.03  -0.01    -0.02  -0.02   0.01    -0.02  -0.02  -0.01
  21   1    -0.03   0.01  -0.03    -0.04  -0.01  -0.03    -0.00  -0.02  -0.01
  22   6    -0.05   0.01  -0.05    -0.13   0.03  -0.02     0.15  -0.07   0.04
  23   8    -0.12   0.02  -0.10    -0.19  -0.04  -0.07     0.11  -0.11  -0.01
  24   7     0.02  -0.01  -0.05    -0.10   0.15  -0.08     0.19   0.01  -0.00
  25   1     0.01  -0.01  -0.02    -0.01   0.02  -0.04     0.01   0.05  -0.04
  26   1     0.02  -0.01  -0.00     0.00   0.03   0.00     0.02   0.05  -0.01
  27   7    -0.07   0.02  -0.01    -0.16   0.05   0.09     0.27  -0.20   0.18
  28   1     0.00  -0.00   0.01    -0.01   0.01   0.04     0.04   0.00   0.04
  29   1    -0.03   0.01  -0.00    -0.04  -0.02   0.04     0.04  -0.04   0.05
  30   6     0.08   0.05   0.06     0.04  -0.04  -0.02     0.02   0.00  -0.02
  31   8    -0.11   0.16  -0.24     0.13  -0.10   0.09    -0.03   0.03  -0.09
  32   7     0.26  -0.06   0.35    -0.18   0.08  -0.40    -0.09   0.04  -0.22
  33   1     0.03  -0.00   0.05    -0.05   0.02  -0.10    -0.03   0.01  -0.06
  34   1     0.09  -0.03   0.12    -0.04   0.02  -0.09     0.01  -0.00  -0.01
  35   7     0.18   0.05   0.14     0.13  -0.12   0.22     0.20  -0.06   0.25
  36   1     0.09  -0.02   0.11     0.02  -0.02   0.02     0.05  -0.02   0.06
  37   1     0.01   0.03  -0.01     0.08  -0.06   0.11     0.06  -0.02   0.08
  38   6     0.05  -0.00   0.02     0.03  -0.01   0.11    -0.05   0.10  -0.05
  39   8     0.16  -0.10   0.08     0.19  -0.04   0.23    -0.20   0.53  -0.09
  40   7     0.04   0.06  -0.08     0.03   0.03  -0.05     0.03  -0.14  -0.04
  41   1     0.03   0.01  -0.03     0.04   0.01  -0.03    -0.02   0.02  -0.00
  42   1    -0.01   0.03  -0.03    -0.02   0.01  -0.04     0.03  -0.11   0.00
  43   7    -0.04   0.03   0.05    -0.13  -0.01   0.18     0.04  -0.15  -0.05
  44   1    -0.03   0.03   0.00    -0.07  -0.00   0.03     0.04  -0.11  -0.01
  45   1    -0.01  -0.00   0.03    -0.04  -0.01   0.08     0.00   0.01  -0.02
  46   6    -0.06  -0.09  -0.03     0.06   0.02  -0.06    -0.06  -0.01   0.02
  47   8    -0.01  -0.15   0.21     0.02  -0.07   0.12    -0.08  -0.02   0.04
  48   7    -0.11   0.04  -0.37     0.13   0.00  -0.12    -0.05   0.04  -0.16
  49   1    -0.03   0.02  -0.09     0.03  -0.02  -0.00    -0.01   0.01  -0.05
  50   1    -0.04   0.02  -0.13     0.04   0.02  -0.08    -0.01   0.01  -0.03
  51   7    -0.06  -0.17   0.02     0.07   0.16  -0.25    -0.06  -0.05   0.18
  52   1    -0.03  -0.04  -0.06     0.03   0.06  -0.10    -0.01  -0.01   0.02
  53   1    -0.01  -0.07   0.06     0.01   0.04  -0.05    -0.02  -0.02   0.06
                     10                     11                     12
                        a                      a                      a 
 Frequencies --    47.5457                49.1728                54.0045
 Red. masses --    12.7436                12.8636                12.9830
 Frc consts  --     0.0000                 0.0000                 0.0000
 IR Inten    --     3.8440                 0.7512                 0.4313
 Raman Activ --     0.0000                 0.0000                 0.0000
 Depolar     --     0.0000                 0.0000                 0.0000
 Atom AN      X      Y      Z        X      Y      Z        X      Y      Z
   1   8     0.13  -0.02   0.01     0.06   0.03   0.08     0.07  -0.14   0.19
   2   6    -0.01   0.05   0.07    -0.02   0.03   0.08     0.01  -0.17   0.11
   3   1    -0.01   0.01   0.05    -0.00   0.02   0.05    -0.00  -0.07   0.02
   4   1    -0.02   0.03   0.01    -0.03   0.01   0.02     0.02  -0.06   0.04
   5   6    -0.01   0.05   0.05     0.03   0.01   0.01    -0.07  -0.09   0.08
   6   1    -0.02   0.02   0.03     0.01   0.00   0.00    -0.04  -0.04   0.01
   7   1     0.02   0.00   0.02     0.03   0.01   0.01    -0.03  -0.02   0.02
   8   7    -0.00   0.10  -0.07     0.02  -0.03  -0.07    -0.06   0.01   0.11
   9   6    -0.09   0.10  -0.09    -0.06  -0.10  -0.07    -0.01   0.07   0.11
  10   1    -0.03   0.03  -0.02    -0.03  -0.04  -0.03    -0.00   0.02   0.04
  11   1    -0.03   0.02  -0.05    -0.02  -0.03  -0.04    -0.00   0.03   0.04
  12   1    -0.03   0.03  -0.02    -0.03  -0.03   0.00     0.01   0.02   0.02
  13   6     0.01   0.10  -0.11     0.08  -0.02  -0.17    -0.14   0.05   0.15
  14   1    -0.02   0.03  -0.03     0.02  -0.02  -0.06    -0.06   0.01   0.05
  15   1     0.02   0.03  -0.03     0.04   0.01  -0.05    -0.05  -0.00   0.05
  16   1     0.00   0.04  -0.06     0.02  -0.02  -0.06    -0.04   0.04   0.05
  17   6     0.08   0.09  -0.09     0.05   0.01  -0.03     0.01   0.01   0.08
  18   1     0.01   0.03  -0.02     0.01  -0.00   0.01     0.01   0.00   0.02
  19   1     0.02   0.03  -0.05     0.01   0.00  -0.02     0.00   0.02   0.02
  20   1     0.04   0.02  -0.02     0.03   0.01  -0.01     0.00  -0.00   0.03
  21   1     0.02  -0.02   0.01     0.02   0.01   0.02     0.04  -0.02   0.04
  22   6    -0.07  -0.00   0.04    -0.02   0.03   0.03     0.08   0.08  -0.03
  23   8    -0.01  -0.08   0.08     0.03   0.03   0.08     0.25   0.03   0.07
  24   7    -0.14   0.07   0.01    -0.10   0.04   0.04    -0.11   0.16  -0.06
  25   1    -0.01  -0.01   0.02    -0.01  -0.01   0.03     0.00   0.00   0.02
  26   1    -0.03   0.01   0.01    -0.02  -0.01   0.01    -0.03   0.01  -0.02
  27   7    -0.14   0.06   0.02    -0.05   0.06  -0.03     0.04   0.14  -0.17
  28   1    -0.03   0.01   0.01    -0.01   0.00  -0.01     0.01   0.02  -0.06
  29   1    -0.02  -0.01   0.02     0.01   0.01  -0.01     0.06   0.01  -0.04
  30   6     0.13   0.06  -0.08    -0.03  -0.05   0.01    -0.05   0.00   0.00
  31   8     0.02   0.15  -0.17     0.04  -0.10   0.03    -0.12   0.05   0.10
  32   7     0.08   0.02  -0.20    -0.07   0.03  -0.06    -0.23  -0.03  -0.30
  33   1     0.01  -0.00  -0.05    -0.00   0.01  -0.01    -0.06  -0.03  -0.04
  34   1     0.07  -0.02  -0.00    -0.03   0.01  -0.01    -0.01  -0.03  -0.04
  35   7     0.36   0.04   0.13    -0.09  -0.08   0.03     0.16  -0.00   0.17
  36   1     0.11   0.00   0.02    -0.04  -0.01  -0.00     0.04  -0.00  -0.00
  37   1     0.09   0.03   0.03    -0.02  -0.03   0.01     0.06   0.02   0.07
  38   6    -0.03  -0.03   0.11    -0.01  -0.04   0.04     0.10  -0.04  -0.16
  39   8     0.01  -0.10   0.15     0.01  -0.17   0.04     0.12  -0.25  -0.21
  40   7    -0.05   0.00   0.08    -0.04   0.03   0.06     0.07   0.08  -0.10
  41   1    -0.00  -0.01   0.02    -0.01  -0.01   0.02     0.02  -0.01  -0.02
  42   1    -0.02   0.01   0.02    -0.01   0.03   0.01     0.02   0.06  -0.02
  43   7    -0.08  -0.01   0.13    -0.02   0.03   0.03     0.15   0.09  -0.21
  44   1    -0.03   0.01   0.03    -0.01   0.03   0.01     0.04   0.06  -0.04
  45   1    -0.02  -0.01   0.04    -0.00  -0.01   0.01     0.05  -0.00  -0.07
  46   6    -0.04  -0.15  -0.05     0.04   0.06  -0.03    -0.07  -0.01   0.01
  47   8    -0.01  -0.04  -0.38    -0.01   0.04  -0.07    -0.03  -0.02   0.10
  48   7    -0.09  -0.20   0.19     0.09   0.21  -0.58    -0.11   0.03  -0.04
  49   1    -0.02  -0.03  -0.01     0.02   0.03  -0.13    -0.03   0.01   0.01
  50   1    -0.03  -0.08   0.09     0.04   0.02  -0.04    -0.04   0.01  -0.02
  51   7    -0.04  -0.28   0.12     0.05  -0.04   0.56    -0.07  -0.05  -0.04
  52   1    -0.03  -0.10   0.10     0.03   0.02   0.04    -0.03  -0.01  -0.03
  53   1    -0.00  -0.06  -0.01     0.00  -0.01   0.16    -0.01  -0.02  -0.00
                     13                     14                     15
                        a                      a                      a 
 Frequencies --    60.2710                73.8716                77.4892
 Red. masses --    12.1599                12.8991                13.4578
 Frc consts  --     0.0000                 0.0000                 0.0000
 IR Inten    --     6.6024                 1.7491                 3.6302
 Raman Activ --     0.0000                 0.0000                 0.0000
 Depolar     --     0.0000                 0.0000                 0.0000
 Atom AN      X      Y      Z        X      Y      Z        X      Y      Z
   1   8    -0.12   0.06  -0.10     0.11  -0.09  -0.10     0.00   0.04   0.18
   2   6    -0.11   0.21   0.08     0.19  -0.11  -0.12     0.04  -0.09   0.02
   3   1    -0.02   0.09   0.07     0.06  -0.04  -0.07     0.02  -0.03  -0.02
   4   1    -0.07   0.10  -0.01     0.09  -0.04  -0.02     0.02  -0.06   0.03
   5   6     0.03   0.07   0.19     0.12  -0.08  -0.05     0.05  -0.07  -0.08
   6   1     0.02   0.05   0.09     0.03  -0.02  -0.01     0.02  -0.03  -0.04
   7   1     0.04  -0.02   0.07     0.02  -0.03  -0.01     0.02   0.00  -0.03
   8   7     0.00  -0.08   0.07     0.15  -0.00  -0.01     0.05  -0.11  -0.08
   9   6    -0.13   0.02  -0.00     0.19   0.10  -0.02     0.05  -0.01  -0.10
  10   1    -0.05   0.02   0.02     0.05   0.04   0.00     0.02   0.01  -0.01
  11   1    -0.04  -0.00  -0.03     0.06   0.05  -0.00     0.01  -0.00  -0.03
  12   1    -0.05   0.01  -0.01     0.07   0.03  -0.03     0.01   0.01  -0.05
  13   6     0.15  -0.19   0.13     0.07   0.01   0.08     0.07  -0.16   0.03
  14   1     0.05  -0.03   0.07     0.01   0.01   0.04     0.03  -0.03   0.03
  15   1     0.07  -0.08   0.05     0.01  -0.02   0.03     0.02  -0.07   0.01
  16   1     0.04  -0.08   0.01     0.02   0.02   0.02     0.02  -0.05   0.00
  17   6    -0.04  -0.19  -0.07     0.14  -0.04  -0.06    -0.01  -0.17  -0.14
  18   1    -0.03  -0.04  -0.05     0.05  -0.01  -0.04    -0.01  -0.04  -0.06
  19   1    -0.01  -0.07  -0.03     0.04   0.00  -0.00    -0.00  -0.06  -0.03
  20   1    -0.00  -0.08  -0.01     0.03  -0.03  -0.02    -0.01  -0.06  -0.04
  21   1     0.00  -0.03  -0.01     0.01  -0.02  -0.02    -0.01   0.04   0.03
  22   6     0.02  -0.05  -0.04    -0.04  -0.09  -0.05     0.02   0.15   0.07
  23   8     0.23  -0.30   0.04    -0.03  -0.18  -0.06    -0.07   0.35   0.06
  24   7    -0.21   0.24  -0.18    -0.04  -0.03  -0.09     0.08  -0.02   0.17
  25   1    -0.00   0.01  -0.03     0.00  -0.02  -0.03    -0.02   0.03   0.05
  26   1    -0.04   0.06  -0.04    -0.01   0.00  -0.02     0.01  -0.02   0.03
  27   7    -0.04   0.02  -0.06    -0.09  -0.06  -0.01     0.11   0.07   0.04
  28   1    -0.02   0.02  -0.02    -0.02  -0.00   0.00     0.03  -0.00   0.00
  29   1     0.04  -0.05   0.01    -0.02  -0.03   0.01     0.01   0.06  -0.01
  30   6     0.00  -0.04  -0.01    -0.19  -0.03   0.07    -0.03  -0.03  -0.15
  31   8     0.00  -0.06  -0.22    -0.30   0.02   0.07    -0.11  -0.02  -0.52
  32   7     0.13   0.02   0.20    -0.23  -0.10   0.03    -0.02   0.09  -0.12
  33   1     0.02   0.03   0.01    -0.07  -0.03   0.01     0.01   0.03  -0.03
  34   1     0.01   0.02   0.05    -0.04  -0.04   0.03     0.04   0.01   0.08
  35   7    -0.09  -0.09   0.03    -0.08  -0.03   0.15     0.01  -0.17   0.18
  36   1    -0.02  -0.03   0.06    -0.02  -0.01   0.03    -0.00  -0.04   0.09
  37   1    -0.04  -0.05  -0.01    -0.03   0.01   0.03    -0.03  -0.07   0.01
  38   6     0.08  -0.00  -0.06    -0.01   0.02   0.06    -0.07  -0.05   0.03
  39   8     0.12  -0.05  -0.06     0.01   0.09   0.10    -0.10  -0.15  -0.00
  40   7     0.08   0.04  -0.09     0.01  -0.02   0.01    -0.09  -0.01   0.10
  41   1     0.03   0.00  -0.03     0.01   0.01  -0.00    -0.03  -0.02   0.03
  42   1     0.02   0.02  -0.03    -0.00  -0.01  -0.00    -0.02   0.02   0.03
  43   7     0.07   0.02  -0.07    -0.05  -0.03   0.09    -0.03   0.02   0.00
  44   1     0.01   0.02  -0.02    -0.02  -0.02   0.02    -0.00   0.02   0.01
  45   1     0.02  -0.00  -0.01    -0.02   0.00   0.03    -0.00  -0.01  -0.01
  46   6    -0.04   0.09   0.03     0.02   0.17  -0.03     0.00   0.09   0.06
  47   8    -0.09   0.13  -0.11     0.21   0.35  -0.17     0.01   0.09   0.11
  48   7    -0.01   0.03   0.17    -0.18   0.26   0.07    -0.00   0.06   0.17
  49   1     0.00   0.01   0.00    -0.05   0.10   0.02     0.00   0.03  -0.01
  50   1     0.01   0.01   0.05    -0.08   0.03   0.07    -0.00   0.04  -0.02
  51   7    -0.04   0.13   0.09     0.00  -0.10   0.04     0.00   0.12  -0.04
  52   1    -0.00   0.03   0.06    -0.04  -0.05   0.01    -0.00   0.02   0.02
  53   1    -0.02   0.05   0.01     0.04  -0.03  -0.04    -0.00   0.03   0.01
                     16                     17                     18
                        a                      a                      a 
 Frequencies --    88.0758                99.2305               108.6123
 Red. masses --    12.7185                12.2975                12.3691
 Frc consts  --     0.0000                 0.0000                 0.0000
 IR Inten    --     5.5733                 5.6725                 7.8020
 Raman Activ --     0.0000                 0.0000                 0.0000
 Depolar     --     0.0000                 0.0000                 0.0000
 Atom AN      X      Y      Z        X      Y      Z        X      Y      Z
   1   8    -0.19  -0.00   0.05    -0.10  -0.02   0.04    -0.24  -0.02   0.08
   2   6    -0.04  -0.06  -0.02    -0.01  -0.14  -0.10    -0.08  -0.07   0.01
   3   1    -0.01  -0.02  -0.05    -0.00  -0.06  -0.08    -0.01   0.00  -0.01
   4   1     0.02  -0.03   0.01     0.03  -0.08  -0.00    -0.03  -0.04   0.01
   5   6    -0.07  -0.05   0.03    -0.09  -0.06  -0.16     0.02  -0.14  -0.04
   6   1    -0.01  -0.01   0.01    -0.04  -0.03  -0.06     0.02  -0.04  -0.02
   7   1    -0.04  -0.02   0.01    -0.04  -0.00  -0.05     0.02  -0.03  -0.01
   8   7    -0.07  -0.04   0.10    -0.07   0.05  -0.12     0.01  -0.25  -0.06
   9   6     0.02   0.16   0.08     0.06   0.15  -0.10    -0.05  -0.30  -0.06
  10   1     0.03   0.08   0.05     0.04   0.06  -0.02    -0.02  -0.09  -0.02
  11   1     0.01   0.03   0.04     0.02   0.04   0.00    -0.01  -0.09  -0.03
  12   1    -0.01   0.07  -0.03     0.02   0.05  -0.06    -0.02  -0.09   0.00
  13   6    -0.11  -0.08   0.32    -0.20   0.09  -0.00     0.10  -0.25  -0.15
  14   1    -0.05   0.01   0.14    -0.07   0.03   0.01     0.04  -0.08  -0.06
  15   1    -0.03  -0.09   0.11    -0.08  -0.00   0.00     0.04  -0.05  -0.05
  16   1    -0.03  -0.01   0.08    -0.05   0.06   0.01     0.02  -0.09  -0.05
  17   6    -0.08  -0.15  -0.04    -0.02   0.03  -0.16    -0.04  -0.18   0.02
  18   1    -0.01  -0.03  -0.06     0.02   0.01  -0.07    -0.02  -0.05   0.02
  19   1    -0.02  -0.04   0.00    -0.00   0.03  -0.04    -0.01  -0.06   0.01
  20   1    -0.04  -0.08  -0.01    -0.02  -0.02  -0.05    -0.01  -0.03   0.00
  21   1    -0.05   0.02   0.00     0.02   0.01   0.00    -0.04   0.00   0.01
  22   6    -0.05   0.07  -0.00     0.10  -0.09   0.00    -0.02  -0.01   0.01
  23   8    -0.19   0.23  -0.07     0.31  -0.29   0.11    -0.01  -0.04   0.01
  24   7     0.07  -0.06   0.05    -0.10   0.09  -0.07    -0.02   0.01  -0.00
  25   1    -0.02   0.03  -0.00     0.03  -0.04   0.01     0.00  -0.00  -0.00
  26   1     0.02  -0.02   0.01    -0.03   0.02  -0.02    -0.00   0.00   0.00
  27   7     0.03  -0.01   0.04    -0.00   0.02  -0.07    -0.02  -0.02   0.03
  28   1     0.02  -0.01   0.01    -0.01   0.02  -0.03    -0.01   0.00   0.01
  29   1    -0.02   0.03  -0.01     0.04  -0.04   0.00    -0.01  -0.00   0.01
  30   6     0.01   0.02   0.05    -0.07   0.12   0.04     0.00   0.28   0.07
  31   8     0.11  -0.03   0.14     0.02   0.06  -0.07    -0.09   0.39   0.14
  32   7    -0.02   0.08   0.00    -0.08   0.28   0.04    -0.02   0.18   0.03
  33   1    -0.00   0.02   0.01     0.00   0.08   0.02    -0.03   0.03   0.02
  34   1    -0.02   0.03  -0.02    -0.02   0.08   0.04     0.01   0.03  -0.01
  35   7    -0.06   0.01   0.02    -0.20   0.04   0.15     0.16   0.38   0.04
  36   1    -0.03   0.02  -0.01    -0.08   0.03   0.06     0.07   0.08   0.00
  37   1    -0.01  -0.01   0.02    -0.06  -0.03   0.03     0.05   0.13   0.02
  38   6     0.02   0.00  -0.05    -0.05  -0.01   0.08     0.01   0.00  -0.02
  39   8     0.02  -0.01  -0.07    -0.05  -0.01   0.10     0.02  -0.00  -0.03
  40   7     0.02   0.01  -0.04    -0.06  -0.02   0.09     0.02   0.01  -0.02
  41   1     0.00  -0.00  -0.01    -0.02  -0.00   0.02     0.00  -0.00  -0.01
  42   1     0.01   0.00  -0.01    -0.02  -0.00   0.02     0.00   0.00  -0.01
  43   7     0.04   0.01  -0.07    -0.07  -0.02   0.10     0.02   0.00  -0.03
  44   1     0.01   0.01  -0.01    -0.02  -0.01   0.02     0.01   0.00  -0.01
  45   1     0.01   0.00  -0.02    -0.02  -0.01   0.03     0.01   0.00  -0.01
  46   6     0.12  -0.02  -0.16     0.16  -0.07   0.03     0.05   0.02   0.00
  47   8     0.06   0.05  -0.54     0.08  -0.16   0.09     0.11   0.05   0.00
  48   7     0.20  -0.10  -0.02     0.26  -0.12   0.00    -0.01   0.06   0.01
  49   1     0.06  -0.03  -0.03     0.07  -0.04  -0.01    -0.00   0.03   0.01
  50   1     0.07  -0.06   0.09     0.08  -0.01  -0.04    -0.02   0.01   0.00
  51   7     0.14  -0.03   0.14     0.18   0.06  -0.02     0.05  -0.05  -0.02
  52   1     0.05  -0.01   0.07     0.07   0.02   0.01    -0.00  -0.02  -0.01
  53   1     0.02   0.03  -0.02     0.03   0.02   0.03     0.03  -0.02  -0.01
                     19                     20                     21
                        a                      a                      a 
 Frequencies --   112.0478               127.9452               133.1812
 Red. masses --    12.6869                12.2158                12.0512
 Frc consts  --     0.0000                 0.0000                 0.0000
 IR Inten    --    20.8284                 8.8843                 4.0440
 Raman Activ --     0.0000                 0.0000                 0.0000
 Depolar     --     0.0000                 0.0000                 0.0000
 Atom AN      X      Y      Z        X      Y      Z        X      Y      Z
   1   8     0.12  -0.10   0.17    -0.17   0.02  -0.16     0.13  -0.06  -0.03
   2   6     0.02  -0.08   0.15    -0.09   0.07  -0.08     0.04  -0.01   0.03
   3   1    -0.00  -0.03   0.06    -0.02   0.03  -0.03     0.01  -0.01   0.03
   4   1    -0.00  -0.02   0.04    -0.02   0.03  -0.03     0.00   0.01  -0.00
   5   6    -0.02  -0.04   0.11    -0.08   0.03   0.01     0.04   0.00   0.02
   6   1    -0.02  -0.02   0.03    -0.01   0.01   0.00    -0.01   0.01   0.03
   7   1     0.00  -0.01   0.03    -0.04   0.00   0.00     0.03  -0.03   0.02
   8   7    -0.01   0.02   0.07    -0.08   0.03   0.09     0.04   0.05  -0.13
   9   6    -0.05  -0.08   0.07    -0.01  -0.16   0.15    -0.04   0.21  -0.19
  10   1    -0.04  -0.05   0.00    -0.01  -0.09   0.01    -0.02   0.09  -0.02
  11   1    -0.01  -0.00   0.01    -0.00  -0.03   0.06    -0.01   0.05  -0.07
  12   1     0.00  -0.04   0.05     0.02  -0.07   0.08    -0.02   0.07  -0.08
  13   6    -0.04   0.10  -0.09    -0.12   0.11  -0.06     0.07   0.00  -0.04
  14   1    -0.03   0.00  -0.05    -0.03  -0.00  -0.06     0.01   0.02   0.02
  15   1    -0.01   0.06  -0.03    -0.05   0.08  -0.03     0.04  -0.03   0.00
  16   1    -0.01   0.04  -0.03    -0.03   0.04   0.01     0.02  -0.00  -0.03
  17   6     0.09   0.11   0.13    -0.07   0.14   0.22     0.08  -0.05  -0.27
  18   1     0.02   0.02   0.07    -0.02   0.03   0.10     0.03  -0.00  -0.11
  19   1     0.03   0.04   0.02    -0.02   0.04   0.07     0.02  -0.01  -0.08
  20   1     0.04   0.05   0.04    -0.02   0.07   0.06     0.03  -0.05  -0.07
  21   1     0.00  -0.02   0.04    -0.04  -0.02  -0.03    -0.01  -0.03   0.00
  22   6    -0.19  -0.11   0.00     0.04   0.03   0.09    -0.11  -0.02   0.17
  23   8    -0.27  -0.04  -0.01    -0.01  -0.15   0.01    -0.24  -0.17   0.07
  24   7    -0.14  -0.19   0.02     0.17   0.20   0.01     0.10   0.11   0.11
  25   1    -0.06  -0.03  -0.01     0.07   0.03  -0.02     0.04   0.03  -0.02
  26   1    -0.04  -0.05   0.01     0.06   0.08   0.02     0.04   0.06   0.05
  27   7    -0.17  -0.17  -0.01    -0.02   0.10   0.29    -0.17   0.03   0.43
  28   1    -0.04  -0.05  -0.00     0.01   0.06   0.10    -0.02   0.04   0.14
  29   1    -0.05  -0.03  -0.01    -0.03   0.00   0.10    -0.08  -0.02   0.14
  30   6    -0.05   0.07  -0.05    -0.03  -0.05  -0.08    -0.05   0.01   0.06
  31   8    -0.03   0.03  -0.32    -0.09  -0.04  -0.22    -0.08   0.04   0.14
  32   7    -0.02   0.23   0.01     0.02  -0.06   0.01    -0.07  -0.06   0.03
  33   1     0.02   0.07   0.01    -0.01  -0.01  -0.03    -0.02  -0.02   0.02
  34   1     0.01   0.06   0.08     0.01  -0.02   0.02    -0.01  -0.02   0.00
  35   7    -0.14  -0.05   0.15    -0.01  -0.09   0.01    -0.00   0.06   0.00
  36   1    -0.06   0.00   0.07     0.00  -0.03   0.03     0.00   0.01  -0.02
  37   1    -0.07  -0.05   0.00    -0.02  -0.03  -0.01     0.00   0.03   0.00
  38   6     0.14   0.09  -0.10    -0.04  -0.06  -0.06     0.03  -0.03  -0.14
  39   8     0.19   0.24  -0.07    -0.09  -0.20  -0.12     0.00  -0.12  -0.20
  40   7     0.18   0.04  -0.23    -0.08   0.00   0.06     0.01   0.03  -0.06
  41   1     0.07   0.02  -0.07    -0.04  -0.03   0.03    -0.01  -0.02  -0.01
  42   1     0.04  -0.03  -0.07    -0.01   0.02   0.03     0.02   0.01  -0.01
  43   7     0.09  -0.01  -0.07     0.05   0.04  -0.11     0.13   0.04  -0.20
  44   1     0.01  -0.01  -0.03     0.03   0.03  -0.01     0.05   0.04  -0.04
  45   1     0.02   0.03  -0.00     0.02  -0.01  -0.05     0.04   0.00  -0.08
  46   6     0.07  -0.01   0.00     0.17   0.03  -0.03     0.01  -0.03   0.06
  47   8     0.07  -0.02   0.00     0.32   0.11  -0.06    -0.07  -0.11   0.15
  48   7     0.09  -0.03   0.02     0.05   0.08   0.02     0.08  -0.06  -0.00
  49   1     0.03   0.00  -0.03     0.01   0.05  -0.01     0.02  -0.03   0.01
  50   1     0.02   0.01  -0.03    -0.01   0.01  -0.00     0.03  -0.00  -0.02
  51   7     0.08   0.00  -0.00     0.18  -0.17  -0.04     0.01   0.10   0.00
  52   1     0.02  -0.00   0.02     0.01  -0.07   0.00     0.02   0.04  -0.00
  53   1     0.02  -0.00   0.02     0.08  -0.06  -0.02    -0.02   0.03   0.02
                     22                     23                     24
                        a                      a                      a 
 Frequencies --   136.2089               143.1740               160.2795
 Red. masses --    12.3816                12.5415                11.9636
 Frc consts  --     0.0000                 0.0000                 0.0000
 IR Inten    --     7.6275                30.2920                11.1809
 Raman Activ --     0.0000                 0.0000                 0.0000
 Depolar     --     0.0000                 0.0000                 0.0000
 Atom AN      X      Y      Z        X      Y      Z        X      Y      Z
   1   8     0.03  -0.05  -0.02     0.11  -0.07  -0.12    -0.18   0.25   0.05
   2   6     0.13  -0.14  -0.11     0.15  -0.05  -0.08     0.07   0.01  -0.17
   3   1     0.04  -0.05  -0.08     0.04  -0.02  -0.05     0.03   0.00  -0.13
   4   1     0.08  -0.06  -0.01     0.07  -0.01  -0.02     0.07  -0.06  -0.00
   5   6     0.06  -0.09  -0.08     0.09  -0.03   0.03     0.04   0.06  -0.25
   6   1     0.02  -0.04  -0.04     0.03  -0.00   0.01     0.04  -0.01  -0.12
   7   1    -0.01  -0.02  -0.03     0.00  -0.02   0.00    -0.02   0.07  -0.09
   8   7     0.08  -0.05   0.03     0.09  -0.01   0.11     0.04   0.02  -0.05
   9   6     0.15  -0.07   0.06     0.08  -0.12   0.12     0.22  -0.06   0.03
  10   1     0.04  -0.03   0.01    -0.00  -0.06   0.02     0.11  -0.01  -0.01
  11   1     0.04  -0.01   0.03     0.02  -0.01   0.03     0.06  -0.04   0.06
  12   1     0.06  -0.03   0.02     0.04  -0.05   0.07     0.05  -0.01  -0.00
  13   6     0.00   0.00   0.02     0.08   0.03  -0.00     0.03   0.01  -0.00
  14   1    -0.00  -0.01  -0.01     0.03  -0.01  -0.03     0.03  -0.00  -0.02
  15   1    -0.02   0.01   0.00     0.01   0.04  -0.01    -0.02   0.01  -0.01
  16   1     0.00   0.01   0.02     0.02   0.00   0.02     0.01  -0.01   0.03
  17   6     0.05   0.01   0.10     0.05   0.07   0.21    -0.15   0.04   0.06
  18   1     0.04  -0.01   0.03     0.00   0.01   0.09    -0.03   0.01   0.01
  19   1     0.01   0.02   0.05     0.01   0.01   0.06    -0.05  -0.00   0.07
  20   1    -0.01   0.01   0.02     0.02   0.05   0.06    -0.09   0.03  -0.00
  21   1    -0.01  -0.00  -0.01     0.01  -0.02  -0.03    -0.04   0.09   0.00
  22   6     0.01  -0.01   0.04     0.04   0.02  -0.06    -0.05  -0.06   0.23
  23   8    -0.02  -0.14  -0.01     0.01  -0.02  -0.11     0.10  -0.09   0.39
  24   7     0.09   0.09  -0.01     0.11   0.06  -0.08    -0.28  -0.05   0.26
  25   1     0.04   0.01  -0.02     0.03   0.02  -0.04    -0.06  -0.04   0.11
  26   1     0.03   0.04   0.01     0.04   0.03  -0.01    -0.09  -0.04   0.05
  27   7    -0.05   0.04   0.17     0.03   0.04   0.02    -0.09  -0.03   0.07
  28   1    -0.00   0.03   0.06     0.01   0.02   0.01    -0.04  -0.02   0.00
  29   1    -0.02  -0.01   0.06    -0.01   0.01   0.01     0.03  -0.02   0.02
  30   6     0.13   0.09   0.01    -0.13   0.06  -0.01     0.01  -0.07  -0.04
  31   8     0.41  -0.07   0.00    -0.30   0.16  -0.13    -0.06  -0.03  -0.02
  32   7     0.12   0.40  -0.03    -0.09  -0.08   0.06     0.01  -0.16  -0.05
  33   1     0.07   0.12  -0.00    -0.05  -0.02   0.01    -0.01  -0.05  -0.01
  34   1    -0.02   0.14  -0.02     0.01  -0.04   0.04     0.02  -0.05  -0.01
  35   7    -0.15  -0.02   0.06     0.03   0.08   0.06     0.11  -0.04  -0.07
  36   1    -0.09   0.03   0.03     0.03   0.01   0.02     0.05  -0.02  -0.03
  37   1    -0.03  -0.07   0.03    -0.02   0.05  -0.02     0.03   0.01  -0.02
  38   6    -0.02  -0.03  -0.03    -0.04  -0.03   0.02     0.07   0.04  -0.06
  39   8    -0.04  -0.09  -0.06    -0.05  -0.07   0.01     0.09   0.11  -0.05
  40   7    -0.04   0.00   0.03    -0.05  -0.01   0.06     0.10   0.03  -0.13
  41   1    -0.02  -0.01   0.01    -0.02  -0.01   0.02     0.04   0.01  -0.04
  42   1    -0.00   0.01   0.01    -0.01   0.01   0.02     0.02  -0.02  -0.04
  43   7     0.03   0.02  -0.06    -0.02   0.01   0.01     0.07  -0.00  -0.06
  44   1     0.01   0.02  -0.01    -0.00   0.00   0.01     0.01   0.01  -0.02
  45   1     0.01  -0.00  -0.03    -0.00  -0.01  -0.00     0.01   0.02  -0.01
  46   6    -0.23   0.02  -0.04    -0.06  -0.03  -0.05    -0.04   0.01  -0.04
  47   8    -0.21   0.08  -0.10    -0.36  -0.15  -0.21    -0.09   0.01  -0.12
  48   7    -0.27   0.04  -0.02     0.21  -0.21  -0.02     0.01  -0.03  -0.01
  49   1    -0.07  -0.00  -0.01     0.06  -0.08  -0.04     0.00  -0.02  -0.00
  50   1    -0.07  -0.00   0.03     0.10  -0.03   0.01     0.01  -0.01   0.02
  51   7    -0.25  -0.04   0.02    -0.05   0.33   0.13    -0.04   0.06   0.03
  52   1    -0.07  -0.01  -0.01     0.06   0.13   0.05     0.01   0.03   0.01
  53   1    -0.06  -0.01  -0.02    -0.09   0.14   0.02    -0.02   0.03  -0.01
                     25                     26                     27
                        a                      a                      a 
 Frequencies --   197.6199               211.8768               219.8439
 Red. masses --    10.7430                 2.1914                 3.7071
 Frc consts  --     0.0000                 0.0000                 0.0000
 IR Inten    --    12.7104               127.6328                 8.3498
 Raman Activ --     0.0000                 0.0000                 0.0000
 Depolar     --     0.0000                 0.0000                 0.0000
 Atom AN      X      Y      Z        X      Y      Z        X      Y      Z
   1   8    -0.64   0.02   0.03    -0.01   0.00   0.03     0.04   0.01   0.06
   2   6     0.11  -0.08  -0.06    -0.03   0.01   0.03    -0.01   0.00   0.05
   3   1     0.06   0.01  -0.17    -0.01   0.01   0.02    -0.00   0.00   0.03
   4   1     0.14  -0.06   0.03    -0.02   0.00   0.00    -0.02  -0.00   0.01
   5   6     0.08  -0.15   0.26    -0.01   0.01  -0.01     0.00   0.02  -0.04
   6   1    -0.01   0.02   0.16    -0.00  -0.00  -0.01     0.00  -0.01  -0.03
   7   1     0.04  -0.14   0.11     0.00   0.01  -0.00     0.00   0.03  -0.02
   8   7     0.12   0.04   0.02    -0.01   0.01  -0.01     0.00   0.01  -0.01
   9   6    -0.05   0.12  -0.05     0.01   0.01  -0.00     0.03  -0.01   0.01
  10   1    -0.15  -0.02  -0.01     0.03   0.01   0.00     0.05   0.01   0.00
  11   1    -0.01   0.15  -0.09     0.00  -0.02   0.01     0.01  -0.03   0.02
  12   1     0.08  -0.02   0.03    -0.01   0.01  -0.01    -0.02   0.01  -0.01
  13   6     0.03   0.14  -0.10    -0.01   0.01  -0.01     0.01  -0.00   0.00
  14   1    -0.00   0.01  -0.06     0.00   0.00  -0.00     0.00   0.00   0.01
  15   1    -0.00   0.07  -0.04    -0.01   0.00  -0.00     0.01  -0.01   0.00
  16   1     0.01   0.06  -0.01    -0.00  -0.00   0.00     0.00  -0.00  -0.00
  17   6     0.32   0.06  -0.04     0.01   0.01  -0.02    -0.04   0.00   0.01
  18   1     0.03   0.02   0.03    -0.01   0.00  -0.00     0.00   0.00  -0.01
  19   1     0.09  -0.01  -0.11     0.00   0.00  -0.01    -0.01   0.01   0.03
  20   1     0.17   0.04   0.02     0.01   0.00  -0.00    -0.04  -0.01  -0.01
  21   1    -0.10   0.01  -0.00     0.00   0.00   0.01     0.03  -0.00   0.02
  22   6     0.00   0.02   0.00    -0.00  -0.01  -0.01    -0.02  -0.01  -0.02
  23   8     0.00   0.06   0.01    -0.01  -0.01  -0.02    -0.03  -0.00  -0.04
  24   7    -0.04   0.02   0.01    -0.01   0.02  -0.03    -0.16   0.20  -0.12
  25   1     0.03  -0.04   0.03     0.04  -0.04   0.01     0.37  -0.39   0.16
  26   1     0.01  -0.03   0.01     0.02  -0.01   0.01     0.14  -0.14   0.06
  27   7     0.05  -0.03  -0.02     0.02  -0.03   0.01     0.20  -0.22   0.12
  28   1    -0.01   0.01  -0.02    -0.01   0.01  -0.00    -0.14   0.14  -0.06
  29   1    -0.04   0.06  -0.04    -0.04   0.04  -0.02    -0.38   0.40  -0.19
  30   6     0.02  -0.05  -0.02    -0.00   0.01  -0.02     0.00  -0.01   0.01
  31   8     0.02  -0.05  -0.01    -0.01   0.01  -0.06     0.00  -0.01   0.01
  32   7     0.02  -0.06  -0.02     0.01   0.01  -0.00    -0.02  -0.00  -0.03
  33   1    -0.02  -0.02  -0.02     0.01   0.00   0.01     0.02  -0.01   0.03
  34   1    -0.01  -0.01  -0.04     0.02  -0.00   0.03     0.04  -0.02   0.06
  35   7     0.02  -0.04  -0.04     0.02  -0.01   0.02     0.01  -0.01  -0.00
  36   1     0.02  -0.02   0.01    -0.01   0.01  -0.03    -0.02   0.02  -0.04
  37   1     0.02  -0.02   0.01    -0.02   0.01  -0.03    -0.02   0.01  -0.03
  38   6     0.00   0.00   0.00    -0.00  -0.00  -0.00    -0.00   0.00  -0.00
  39   8     0.01   0.01   0.00    -0.00  -0.00  -0.00    -0.00   0.00  -0.00
  40   7     0.00   0.00  -0.00    -0.00  -0.00   0.00    -0.01   0.03   0.01
  41   1     0.00  -0.00  -0.00    -0.00  -0.00   0.00     0.00  -0.04   0.00
  42   1     0.00  -0.00  -0.00     0.00   0.00   0.00     0.01  -0.05   0.01
  43   7    -0.00  -0.00   0.00    -0.00  -0.00  -0.00     0.00  -0.04  -0.00
  44   1    -0.00  -0.00   0.00    -0.00  -0.00  -0.00    -0.02   0.05   0.00
  45   1    -0.00   0.00   0.00    -0.00   0.00   0.00    -0.01   0.04   0.01
  46   6    -0.02  -0.01   0.02     0.02  -0.01  -0.01    -0.00   0.00  -0.00
  47   8    -0.04  -0.03   0.05     0.03  -0.02   0.05    -0.01   0.01  -0.01
  48   7    -0.01  -0.02   0.00     0.01  -0.00   0.01    -0.00   0.00  -0.00
  49   1    -0.00  -0.01  -0.00    -0.00  -0.05   0.13     0.00   0.00  -0.01
  50   1     0.00   0.00  -0.01    -0.00  -0.12   0.27     0.00   0.01  -0.02
  51   7    -0.03   0.01   0.01    -0.04  -0.07   0.26     0.00   0.01  -0.03
  52   1    -0.00   0.01  -0.01     0.06   0.19  -0.73    -0.01  -0.02   0.08
  53   1    -0.01   0.00   0.01     0.05   0.14  -0.44    -0.01  -0.01   0.05
                     28                     29                     30
                        a                      a                      a 
 Frequencies --   240.1765               246.6963               266.6717
 Red. masses --     9.7506                 3.8224                 4.0482
 Frc consts  --     0.0000                 0.0000                 0.0000
 IR Inten    --    12.3710                17.4472                14.8647
 Raman Activ --     0.0000                 0.0000                 0.0000
 Depolar     --     0.0000                 0.0000                 0.0000
 Atom AN      X      Y      Z        X      Y      Z        X      Y      Z
   1   8    -0.30   0.10   0.41    -0.06   0.01   0.06    -0.03  -0.10  -0.18
   2   6    -0.09  -0.00   0.28    -0.02   0.00   0.05    -0.13   0.06   0.01
   3   1    -0.01   0.05   0.08    -0.00   0.01   0.02    -0.03   0.06   0.09
   4   1    -0.07  -0.04   0.09    -0.02  -0.00   0.01    -0.12   0.06  -0.04
   5   6     0.07   0.02  -0.07     0.01  -0.00  -0.01     0.04  -0.09   0.02
   6   1     0.01  -0.05  -0.09     0.00  -0.01  -0.01     0.02  -0.02   0.02
   7   1     0.04   0.10  -0.05     0.01   0.01  -0.01     0.03  -0.03   0.01
   8   7     0.10   0.06  -0.03     0.02   0.01  -0.00     0.06  -0.07  -0.01
   9   6     0.21   0.04   0.02     0.04   0.01   0.00     0.12  -0.07   0.02
  10   1     0.25   0.11   0.02     0.05   0.02   0.01     0.22   0.08   0.03
  11   1     0.05  -0.17   0.08     0.01  -0.04   0.02     0.02  -0.21   0.07
  12   1    -0.09   0.10  -0.08    -0.02   0.02  -0.02    -0.12   0.06  -0.07
  13   6     0.09   0.08  -0.06     0.01   0.02  -0.01    -0.14   0.07  -0.05
  14   1    -0.03   0.04   0.02    -0.01   0.01   0.01    -0.24   0.06   0.11
  15   1     0.09  -0.01   0.01     0.02  -0.01   0.00     0.10  -0.11   0.05
  16   1     0.03   0.04  -0.09     0.00   0.01  -0.02    -0.03   0.14  -0.20
  17   6     0.00   0.08   0.03     0.01   0.02   0.01     0.23  -0.00   0.02
  18   1     0.06   0.02  -0.03     0.02   0.00  -0.01     0.23  -0.04  -0.08
  19   1    -0.00   0.05   0.09     0.00   0.01   0.02     0.07   0.14   0.12
  20   1    -0.08  -0.00  -0.02    -0.01  -0.00  -0.00    -0.07  -0.09  -0.03
  21   1    -0.05   0.05   0.09    -0.01   0.01   0.01     0.01  -0.06  -0.03
  22   6    -0.03  -0.08  -0.13     0.01  -0.01  -0.04     0.01   0.05   0.05
  23   8    -0.06  -0.16  -0.19     0.01  -0.02  -0.05     0.00   0.08   0.06
  24   7     0.17   0.01  -0.21     0.05  -0.02  -0.04    -0.07  -0.01   0.09
  25   1     0.00   0.06  -0.14    -0.05   0.06  -0.04    -0.00  -0.03   0.06
  26   1     0.04   0.07  -0.04    -0.01   0.02  -0.02    -0.01  -0.03   0.02
  27   7    -0.09  -0.02   0.00    -0.02   0.03  -0.01     0.04   0.01  -0.00
  28   1     0.02  -0.01   0.03     0.02  -0.00   0.02    -0.01   0.00  -0.01
  29   1     0.01  -0.08   0.04     0.04  -0.06   0.03    -0.01   0.04  -0.02
  30   6     0.01  -0.04  -0.02     0.00  -0.01  -0.00    -0.03   0.00  -0.02
  31   8    -0.02  -0.03  -0.01    -0.01  -0.00  -0.00    -0.03   0.01  -0.04
  32   7    -0.01  -0.06  -0.05    -0.00  -0.01  -0.00     0.03  -0.01   0.07
  33   1     0.02  -0.03   0.04     0.00  -0.00   0.00    -0.06   0.03  -0.10
  34   1     0.05  -0.04   0.07     0.01  -0.01   0.01    -0.15   0.07  -0.24
  35   7     0.07  -0.06   0.00     0.01  -0.01   0.00    -0.08   0.08  -0.09
  36   1    -0.03   0.02  -0.10    -0.00   0.00  -0.02     0.17  -0.14   0.31
  37   1    -0.03   0.03  -0.07    -0.00   0.01  -0.01     0.14  -0.09   0.19
  38   6    -0.01  -0.01   0.00    -0.02  -0.01   0.03     0.01   0.00  -0.00
  39   8    -0.01  -0.03   0.00    -0.02  -0.02   0.02     0.00   0.01  -0.00
  40   7    -0.01  -0.06   0.03    -0.07   0.31  -0.00     0.01  -0.00  -0.01
  41   1    -0.02   0.06   0.01     0.05  -0.35   0.00     0.00   0.01  -0.00
  42   1    -0.02   0.10   0.00     0.08  -0.52   0.05    -0.00   0.01  -0.01
  43   7    -0.03   0.06   0.01     0.07  -0.29  -0.02     0.00   0.00  -0.00
  44   1     0.03  -0.09  -0.01    -0.15   0.47   0.06     0.00  -0.01  -0.00
  45   1     0.01  -0.07  -0.01    -0.07   0.32   0.02     0.00  -0.00  -0.00
  46   6    -0.02   0.00  -0.00    -0.00  -0.00   0.00    -0.02  -0.00   0.00
  47   8    -0.03   0.00  -0.01    -0.01  -0.00   0.00    -0.02  -0.01   0.01
  48   7    -0.01  -0.00  -0.01    -0.00  -0.00  -0.00    -0.01  -0.02   0.01
  49   1    -0.00  -0.00  -0.00    -0.00  -0.00   0.00    -0.00  -0.00  -0.01
  50   1    -0.00  -0.00   0.00     0.00  -0.00   0.01     0.00   0.01  -0.03
  51   7    -0.02   0.04  -0.02    -0.00   0.01  -0.00    -0.02   0.03   0.02
  52   1    -0.00   0.00   0.05     0.00   0.00   0.00     0.01   0.02  -0.02
  53   1    -0.02   0.01   0.03    -0.00   0.00   0.00    -0.01   0.02  -0.01
                     31                     32                     33
                        a                      a                      a 
 Frequencies --   269.7358               292.2472               309.7536
 Red. masses --     4.1584                 6.2497                 4.9878
 Frc consts  --     0.0000                 0.0000                 0.0000
 IR Inten    --    26.5575                 0.7700                 1.3471
 Raman Activ --     0.0000                 0.0000                 0.0000
 Depolar     --     0.0000                 0.0000                 0.0000
 Atom AN      X      Y      Z        X      Y      Z        X      Y      Z
   1   8    -0.03  -0.06  -0.27    -0.02  -0.04   0.03    -0.06  -0.29  -0.16
   2   6    -0.05   0.05  -0.12     0.28  -0.17  -0.12    -0.01  -0.07   0.03
   3   1    -0.01   0.03   0.00     0.07  -0.12  -0.20    -0.00  -0.02   0.04
   4   1    -0.04   0.04  -0.05     0.23  -0.09   0.03    -0.01   0.02  -0.01
   5   6     0.01  -0.07   0.06    -0.07   0.07   0.08    -0.03  -0.07   0.16
   6   1     0.01   0.01   0.06    -0.05   0.02   0.03    -0.04   0.01   0.10
   7   1     0.01  -0.06   0.03    -0.05  -0.01   0.02     0.01  -0.08   0.07
   8   7     0.01  -0.06   0.02    -0.08   0.12   0.06    -0.00   0.05   0.02
   9   6    -0.03  -0.06   0.01    -0.32   0.07  -0.01     0.10   0.17   0.03
  10   1     0.09   0.04   0.02    -0.02   0.08   0.03     0.26   0.20   0.06
  11   1    -0.01  -0.13   0.03    -0.10  -0.10  -0.03     0.02  -0.18   0.10
  12   1    -0.10   0.03  -0.04    -0.19   0.07  -0.03    -0.15   0.16  -0.13
  13   6    -0.08   0.02  -0.04     0.29  -0.06  -0.09     0.15   0.04  -0.19
  14   1    -0.16   0.03   0.08    -0.06   0.06   0.13     0.31  -0.10  -0.30
  15   1     0.09  -0.09   0.04     0.32  -0.13   0.07    -0.16   0.27  -0.17
  16   1    -0.02   0.08  -0.16     0.07  -0.03  -0.29     0.03  -0.14   0.22
  17   6     0.16  -0.01   0.03    -0.25   0.11   0.12    -0.18  -0.02   0.00
  18   1     0.16  -0.03  -0.04     0.02   0.02  -0.03    -0.03   0.01  -0.06
  19   1     0.05   0.10   0.08    -0.08   0.07   0.16    -0.06  -0.02   0.08
  20   1    -0.03  -0.06  -0.02    -0.19  -0.01  -0.01    -0.11  -0.03  -0.02
  21   1    -0.01  -0.04  -0.06    -0.03   0.01  -0.00    -0.02  -0.11  -0.03
  22   6     0.01   0.05   0.05     0.01  -0.00  -0.00     0.02   0.05   0.03
  23   8     0.03   0.08   0.07     0.02  -0.01  -0.00     0.02   0.06   0.03
  24   7    -0.06  -0.03   0.11     0.00   0.01  -0.01    -0.05  -0.01   0.08
  25   1    -0.06   0.03   0.04     0.01  -0.00  -0.00    -0.03   0.00   0.05
  26   1    -0.04  -0.01   0.01     0.00   0.00  -0.00    -0.02  -0.02   0.01
  27   7     0.03   0.03  -0.02     0.01   0.00  -0.01     0.05   0.03  -0.03
  28   1     0.01  -0.01  -0.01     0.00   0.00  -0.01     0.01  -0.01  -0.02
  29   1     0.03   0.01  -0.01     0.00  -0.00  -0.00     0.02   0.02  -0.01
  30   6     0.01   0.02   0.02     0.01  -0.00  -0.00     0.00   0.02   0.00
  31   8     0.01   0.01   0.03     0.02  -0.01  -0.01     0.02   0.01  -0.00
  32   7    -0.03   0.05  -0.06     0.01   0.01  -0.01     0.01   0.02   0.01
  33   1     0.07  -0.01   0.10     0.00  -0.00   0.00    -0.01   0.01  -0.01
  34   1     0.19  -0.07   0.31    -0.01   0.01  -0.02    -0.01   0.01  -0.03
  35   7     0.09  -0.09   0.16    -0.03  -0.00  -0.02    -0.04  -0.01   0.03
  36   1    -0.25   0.20  -0.42     0.03  -0.03   0.07    -0.03   0.01   0.00
  37   1    -0.20   0.12  -0.26     0.02  -0.03   0.04    -0.02  -0.02  -0.00
  38   6     0.01   0.00   0.00    -0.00  -0.00   0.00     0.00   0.00   0.00
  39   8     0.01   0.01   0.00    -0.00  -0.00   0.00     0.00   0.00   0.00
  40   7     0.01  -0.00  -0.01    -0.00  -0.00   0.00     0.01   0.00  -0.01
  41   1     0.00   0.01  -0.01    -0.00   0.00   0.00     0.00   0.00  -0.00
  42   1    -0.00   0.01  -0.01     0.00   0.00   0.00    -0.00  -0.00  -0.00
  43   7     0.00   0.01   0.00    -0.00  -0.00   0.00     0.00   0.00   0.00
  44   1     0.00  -0.01  -0.00    -0.00  -0.00   0.00     0.00  -0.01  -0.00
  45   1     0.00  -0.01   0.00    -0.00  -0.00   0.00     0.00  -0.00   0.00
  46   6    -0.01  -0.01   0.02     0.03   0.00   0.01     0.01   0.00  -0.01
  47   8    -0.01  -0.01   0.03     0.04  -0.00   0.03     0.01   0.01  -0.02
  48   7    -0.01   0.02  -0.02     0.02   0.01   0.00    -0.00   0.01   0.00
  49   1    -0.00  -0.01   0.02     0.00   0.01   0.01    -0.00   0.00   0.00
  50   1    -0.00  -0.02   0.05     0.00   0.00  -0.00    -0.00  -0.00   0.01
  51   7    -0.01   0.01  -0.04     0.04  -0.04  -0.01     0.01   0.01  -0.01
  52   1    -0.01  -0.01   0.04    -0.00  -0.01  -0.04     0.00  -0.00   0.02
  53   1    -0.01  -0.01   0.02     0.03  -0.02  -0.02    -0.00   0.00   0.00
                     34                     35                     36
                        a                      a                      a 
 Frequencies --   341.2588               349.8189               355.2899
 Red. masses --     1.9526                 3.7809                 4.7310
 Frc consts  --     0.0000                 0.0000                 0.0000
 IR Inten    --     1.1573               362.2049                57.2926
 Raman Activ --     0.0000                 0.0000                 0.0000
 Depolar     --     0.0000                 0.0000                 0.0000
 Atom AN      X      Y      Z        X      Y      Z        X      Y      Z
   1   8    -0.01  -0.10  -0.06     0.01   0.02   0.01     0.07   0.22   0.04
   2   6    -0.06  -0.06  -0.05     0.01   0.00  -0.01     0.08   0.03  -0.12
   3   1    -0.02  -0.02   0.01     0.00  -0.00  -0.01     0.02  -0.02  -0.10
   4   1    -0.04  -0.01  -0.02     0.01  -0.00   0.00     0.08  -0.03  -0.00
   5   6    -0.05  -0.03  -0.07    -0.00   0.00   0.01    -0.02   0.02   0.03
   6   1    -0.02  -0.02  -0.04     0.00   0.00   0.00     0.02   0.03   0.03
   7   1    -0.02  -0.00  -0.03    -0.00  -0.00   0.00    -0.02  -0.02   0.01
   8   7    -0.02   0.05  -0.01    -0.00  -0.01   0.01    -0.05  -0.05   0.07
   9   6     0.03  -0.00   0.03    -0.01  -0.00   0.01    -0.14  -0.08   0.06
  10   1     0.21   0.11   0.03     0.01   0.01   0.00     0.13   0.08   0.05
  11   1    -0.00  -0.21   0.07    -0.00  -0.01   0.00    -0.05  -0.22   0.06
  12   1    -0.16   0.09  -0.06    -0.01   0.00  -0.00    -0.21   0.07  -0.05
  13   6     0.08  -0.04   0.06    -0.01   0.00  -0.00    -0.11   0.00  -0.00
  14   1    -0.05   0.04   0.11     0.00  -0.00  -0.01     0.01  -0.03  -0.06
  15   1     0.13  -0.10   0.07    -0.01   0.01  -0.00    -0.10   0.06  -0.03
  16   1     0.02  -0.01  -0.10    -0.00   0.00   0.01    -0.03  -0.00   0.08
  17   6     0.04   0.11  -0.00     0.01  -0.01  -0.00     0.16  -0.08  -0.05
  18   1    -0.38   0.08   0.27     0.01  -0.00  -0.00     0.00  -0.01   0.01
  19   1     0.01  -0.24  -0.38     0.00   0.00  -0.00     0.05  -0.03  -0.11
  20   1     0.41   0.27   0.12     0.00  -0.01  -0.00     0.13  -0.02   0.02
  21   1     0.02  -0.03  -0.01    -0.01   0.01  -0.00     0.01   0.08   0.00
  22   6     0.01   0.01   0.01     0.02  -0.02   0.00    -0.02  -0.02  -0.02
  23   8     0.00   0.01   0.01    -0.02   0.03  -0.01     0.00  -0.03  -0.00
  24   7    -0.03  -0.00   0.03    -0.02   0.03  -0.02     0.03   0.00  -0.04
  25   1    -0.00  -0.01   0.03     0.07  -0.07   0.03    -0.01   0.02  -0.04
  26   1    -0.01  -0.01   0.00     0.05  -0.06   0.02     0.00   0.02  -0.01
  27   7     0.01   0.01   0.01    -0.03   0.03  -0.01    -0.03  -0.02   0.01
  28   1    -0.00   0.00   0.00     0.05  -0.05   0.02    -0.00   0.00   0.01
  29   1    -0.00   0.01   0.00     0.07  -0.08   0.04    -0.01  -0.01   0.00
  30   6     0.00   0.03  -0.02    -0.00   0.00  -0.00     0.06  -0.03   0.09
  31   8     0.01   0.02  -0.02    -0.00   0.00  -0.00     0.03  -0.01   0.06
  32   7     0.03  -0.02   0.03     0.00  -0.00   0.01    -0.09  -0.00  -0.13
  33   1    -0.03  -0.00  -0.02    -0.00   0.00  -0.00     0.05  -0.03   0.08
  34   1    -0.04   0.01  -0.10    -0.01   0.00  -0.02     0.22  -0.11   0.36
  35   7    -0.02  -0.02   0.05     0.01  -0.00   0.01    -0.08   0.07  -0.15
  36   1    -0.04   0.02  -0.02    -0.01   0.00  -0.01     0.09  -0.07   0.16
  37   1    -0.03  -0.01  -0.02    -0.00   0.00  -0.01     0.07  -0.04   0.08
  38   6     0.00   0.00  -0.00    -0.03   0.11  -0.00    -0.00  -0.00  -0.00
  39   8    -0.00   0.00  -0.00    -0.00   0.06   0.01     0.00  -0.00   0.00
  40   7     0.00   0.00  -0.01     0.02  -0.30   0.05    -0.00  -0.00   0.00
  41   1     0.00  -0.00  -0.00    -0.03   0.25   0.00    -0.00  -0.00   0.00
  42   1    -0.00  -0.00  -0.00    -0.11   0.53  -0.05     0.00   0.00   0.00
  43   7     0.00   0.00  -0.00     0.10  -0.29  -0.07    -0.00  -0.00  -0.00
  44   1     0.00  -0.00   0.00    -0.18   0.54   0.04    -0.00   0.00   0.00
  45   1     0.00  -0.00  -0.00    -0.05   0.26   0.03    -0.00   0.00   0.00
  46   6     0.01  -0.01   0.02     0.00  -0.00   0.00    -0.00   0.03  -0.07
  47   8     0.01   0.00   0.01     0.00  -0.00   0.00     0.01   0.03  -0.03
  48   7    -0.03   0.04  -0.02    -0.00   0.00  -0.01    -0.01  -0.07   0.15
  49   1    -0.01  -0.00   0.02    -0.00  -0.00   0.00     0.00   0.05  -0.08
  50   1    -0.01  -0.03   0.09     0.00  -0.01   0.02    -0.01   0.17  -0.42
  51   7     0.01   0.04  -0.03     0.00   0.00  -0.01    -0.02  -0.03   0.12
  52   1     0.01   0.00   0.05     0.00  -0.00   0.01    -0.00   0.03  -0.12
  53   1    -0.01   0.01   0.02    -0.00  -0.00   0.00     0.01   0.01  -0.03
                     37                     38                     39
                        a                      a                      a 
 Frequencies --   359.3149               381.6952               383.9161
 Red. masses --     6.5914                 3.2218                 7.2954
 Frc consts  --     0.0000                 0.0000                 0.0000
 IR Inten    --    35.4103               469.1460                 0.3550
 Raman Activ --     0.0000                 0.0000                 0.0000
 Depolar     --     0.0000                 0.0000                 0.0000
 Atom AN      X      Y      Z        X      Y      Z        X      Y      Z
   1   8     0.13   0.32   0.14    -0.02  -0.03  -0.03    -0.05  -0.00  -0.01
   2   6     0.18   0.04  -0.10    -0.02   0.01  -0.00    -0.17  -0.07  -0.08
   3   1     0.04  -0.04  -0.15    -0.01   0.01   0.01    -0.04   0.02   0.04
   4   1     0.16  -0.03   0.02    -0.02   0.01  -0.00    -0.14  -0.05  -0.03
   5   6    -0.02   0.06   0.08     0.00  -0.01   0.02    -0.02  -0.07  -0.30
   6   1     0.02   0.05   0.05    -0.00   0.00   0.01     0.05  -0.08  -0.18
   7   1    -0.02  -0.02   0.03     0.01  -0.01   0.01    -0.07   0.09  -0.13
   8   7    -0.08  -0.08   0.08     0.01   0.01  -0.00     0.04  -0.02   0.04
   9   6    -0.17  -0.12   0.07     0.03  -0.01   0.00    -0.32   0.14  -0.09
  10   1     0.10   0.05   0.04    -0.01  -0.01  -0.01    -0.11   0.10   0.04
  11   1    -0.06  -0.21   0.05     0.01   0.01  -0.00    -0.10  -0.02  -0.13
  12   1    -0.19   0.04  -0.04     0.03  -0.01   0.01    -0.18   0.08  -0.04
  13   6    -0.20   0.02  -0.03     0.01   0.00   0.01     0.17  -0.15   0.20
  14   1    -0.01  -0.05  -0.10     0.00   0.00   0.01     0.23  -0.04  -0.00
  15   1    -0.15   0.09  -0.05     0.01  -0.00   0.00    -0.07   0.02   0.01
  16   1    -0.05   0.02   0.09     0.00   0.00  -0.00     0.04  -0.15   0.20
  17   6     0.14  -0.15  -0.08    -0.02   0.01  -0.00     0.35   0.19   0.21
  18   1     0.08  -0.04  -0.06    -0.02   0.01  -0.00     0.22  -0.01   0.08
  19   1     0.04   0.02  -0.05    -0.00  -0.00  -0.01     0.10   0.18   0.10
  20   1     0.05  -0.11  -0.01    -0.00   0.01   0.00     0.03   0.05   0.03
  21   1     0.02   0.12   0.02    -0.01  -0.01  -0.01     0.01   0.01  -0.01
  22   6    -0.02  -0.05  -0.02    -0.01   0.02  -0.01     0.00  -0.00   0.01
  23   8    -0.01  -0.02  -0.02     0.02  -0.02   0.01     0.00  -0.00   0.01
  24   7     0.04   0.02  -0.07     0.02  -0.02   0.01    -0.02  -0.00   0.01
  25   1     0.04  -0.02  -0.04    -0.07   0.08  -0.03     0.01  -0.01   0.01
  26   1     0.03   0.01   0.00    -0.03   0.03  -0.02    -0.00  -0.01   0.00
  27   7    -0.04  -0.03   0.01     0.02  -0.01   0.00    -0.01   0.00   0.02
  28   1    -0.00  -0.00   0.01    -0.02   0.02  -0.01     0.00   0.00   0.01
  29   1    -0.00  -0.02   0.01    -0.05   0.05  -0.03     0.00  -0.01   0.01
  30   6    -0.04  -0.01  -0.06     0.05  -0.02   0.07    -0.00  -0.01  -0.02
  31   8    -0.04  -0.01  -0.04     0.03  -0.01   0.01    -0.02   0.00  -0.01
  32   7     0.05  -0.01   0.09    -0.09   0.03  -0.15     0.01  -0.01   0.00
  33   1    -0.02   0.02  -0.04     0.04  -0.02   0.06     0.01   0.00  -0.00
  34   1    -0.17   0.08  -0.25     0.26  -0.11   0.42    -0.02   0.01  -0.03
  35   7     0.10  -0.04   0.06    -0.11   0.09  -0.17    -0.00  -0.02   0.00
  36   1    -0.01   0.02  -0.08     0.16  -0.13   0.32     0.00  -0.01   0.02
  37   1    -0.02   0.04  -0.05     0.05  -0.06   0.07    -0.01  -0.01  -0.01
  38   6    -0.00  -0.01  -0.00     0.00  -0.00   0.00    -0.00   0.00   0.00
  39   8    -0.00  -0.00  -0.00     0.01  -0.01   0.00    -0.00   0.00   0.00
  40   7    -0.01   0.02   0.01     0.00  -0.01  -0.00    -0.00   0.00  -0.00
  41   1    -0.00  -0.02   0.00     0.00   0.01  -0.00     0.00  -0.00  -0.00
  42   1     0.01  -0.04   0.01    -0.01   0.03  -0.01    -0.00  -0.00  -0.00
  43   7    -0.01   0.02   0.00     0.00  -0.01   0.00     0.00   0.00  -0.00
  44   1     0.01  -0.04  -0.00    -0.01   0.03   0.00     0.00  -0.01   0.00
  45   1     0.00  -0.02  -0.00    -0.00   0.00   0.00     0.00  -0.00  -0.00
  46   6     0.01  -0.03   0.07     0.01  -0.04   0.09     0.01  -0.00   0.01
  47   8    -0.00  -0.02   0.04    -0.00  -0.04   0.04    -0.00  -0.01   0.01
  48   7    -0.01   0.07  -0.12    -0.02   0.09  -0.17     0.01   0.01  -0.01
  49   1    -0.01  -0.03   0.06    -0.01  -0.04   0.06     0.00  -0.00   0.01
  50   1     0.00  -0.14   0.36     0.01  -0.22   0.55     0.00  -0.02   0.06
  51   7     0.02   0.04  -0.11     0.02   0.05  -0.14     0.01  -0.00  -0.02
  52   1     0.00  -0.02   0.12     0.01  -0.02   0.15    -0.00  -0.01   0.01
  53   1    -0.01  -0.00   0.03    -0.02  -0.00   0.04     0.01  -0.01   0.01
                     40                     41                     42
                        a                      a                      a 
 Frequencies --   428.8175               444.5598               446.2685
 Red. masses --     2.3724                 8.5452                 1.9725
 Frc consts  --     0.0000                 0.0000                 0.0000
 IR Inten    --   668.0453                 9.4050                 5.2416
 Raman Activ --     0.0000                 0.0000                 0.0000
 Depolar     --     0.0000                 0.0000                 0.0000
 Atom AN      X      Y      Z        X      Y      Z        X      Y      Z
   1   8    -0.01  -0.00   0.00    -0.13  -0.21  -0.04    -0.02  -0.04  -0.01
   2   6     0.03  -0.00   0.01     0.06  -0.06   0.07     0.01  -0.01   0.01
   3   1     0.01  -0.00  -0.01     0.01  -0.03  -0.00     0.00  -0.01   0.00
   4   1     0.02  -0.00   0.01     0.04  -0.00   0.02     0.00  -0.00   0.00
   5   6     0.00   0.03  -0.02    -0.06   0.14  -0.01    -0.01   0.02  -0.00
   6   1     0.00  -0.00  -0.02    -0.06   0.00  -0.04    -0.01   0.00  -0.00
   7   1    -0.00   0.02  -0.01    -0.02   0.07  -0.01    -0.00   0.01  -0.00
   8   7    -0.01   0.02  -0.01    -0.01   0.31  -0.06    -0.00   0.06  -0.02
   9   6    -0.03  -0.03   0.00    -0.06  -0.39   0.10    -0.01  -0.07   0.01
  10   1     0.00  -0.01  -0.01     0.05  -0.21  -0.11     0.01  -0.04  -0.02
  11   1    -0.01  -0.02   0.00    -0.02  -0.19   0.06    -0.00  -0.04   0.01
  12   1    -0.02  -0.01   0.01    -0.08  -0.13   0.18    -0.01  -0.02   0.03
  13   6    -0.01   0.01   0.02     0.14   0.14   0.26     0.03   0.02   0.05
  14   1     0.01   0.00   0.00     0.15   0.09   0.10     0.03   0.02   0.02
  15   1    -0.02   0.00   0.00    -0.03  -0.00   0.07    -0.01  -0.00   0.01
  16   1    -0.00  -0.00   0.02     0.03  -0.03   0.15     0.01  -0.01   0.03
  17   6     0.00   0.01  -0.02     0.06   0.12  -0.36     0.01   0.03  -0.06
  18   1     0.01   0.00  -0.01     0.07   0.05  -0.19     0.01   0.01  -0.03
  19   1     0.00   0.01  -0.01     0.02   0.07  -0.09     0.00   0.01  -0.02
  20   1     0.00  -0.01  -0.00    -0.00  -0.09  -0.09    -0.00  -0.01  -0.02
  21   1     0.07  -0.03   0.01    -0.02  -0.07  -0.00    -0.00  -0.01  -0.00
  22   6    -0.07   0.08  -0.04     0.03   0.02   0.00    -0.01   0.00   0.02
  23   8     0.11  -0.13   0.05    -0.01   0.01  -0.03    -0.01  -0.00   0.01
  24   7     0.08  -0.11   0.06    -0.04  -0.01   0.03     0.01   0.01   0.01
  25   1    -0.38   0.41  -0.17     0.01  -0.03   0.05     0.01  -0.00  -0.00
  26   1    -0.17   0.17  -0.08    -0.01  -0.04  -0.00     0.01   0.01   0.01
  27   7     0.10  -0.09   0.06     0.01   0.03   0.01     0.00  -0.01  -0.02
  28   1    -0.16   0.17  -0.07     0.02  -0.01   0.01    -0.00  -0.02  -0.01
  29   1    -0.38   0.40  -0.19     0.03  -0.03   0.02     0.01   0.00  -0.01
  30   6    -0.01   0.00  -0.01    -0.03  -0.01   0.01    -0.01  -0.00   0.00
  31   8    -0.01  -0.00  -0.01    -0.00  -0.03  -0.01    -0.00  -0.01  -0.00
  32   7     0.02  -0.00   0.03    -0.01   0.05   0.02    -0.00   0.01   0.00
  33   1     0.00  -0.00   0.01     0.01   0.02   0.01     0.00   0.00   0.00
  34   1    -0.07   0.03  -0.11    -0.01   0.02   0.02    -0.00   0.00   0.00
  35   7     0.02  -0.01   0.03     0.04   0.02  -0.01     0.01   0.00  -0.00
  36   1    -0.02   0.02  -0.04     0.03  -0.01  -0.02     0.01  -0.00  -0.00
  37   1    -0.01   0.01  -0.01     0.01   0.04   0.00     0.00   0.01  -0.00
  38   6     0.03  -0.02   0.03    -0.02  -0.00   0.02     0.05   0.01  -0.06
  39   8     0.01  -0.04   0.01    -0.02  -0.00   0.02     0.05   0.02  -0.07
  40   7     0.03  -0.03  -0.02    -0.02   0.02  -0.03     0.07  -0.11   0.06
  41   1     0.04  -0.01  -0.02     0.04  -0.07  -0.03    -0.21   0.46   0.09
  42   1    -0.05   0.15  -0.04    -0.04   0.05  -0.03     0.18  -0.37   0.14
  43   7     0.02  -0.04   0.02     0.04  -0.01   0.00    -0.10   0.10  -0.02
  44   1    -0.07   0.15   0.01     0.06  -0.07   0.01    -0.25   0.36  -0.05
  45   1     0.00  -0.02   0.03    -0.00   0.09  -0.03     0.06  -0.50   0.11
  46   6    -0.00   0.01  -0.00    -0.01  -0.01  -0.00    -0.00  -0.00  -0.00
  47   8    -0.00   0.01  -0.00     0.02   0.01   0.00     0.00   0.00   0.00
  48   7     0.01  -0.01   0.02    -0.02  -0.01  -0.00    -0.00  -0.00  -0.00
  49   1     0.00  -0.00   0.00    -0.00  -0.01  -0.00    -0.00  -0.00   0.00
  50   1     0.00   0.02  -0.06    -0.00   0.00  -0.01    -0.00   0.00  -0.00
  51   7    -0.00  -0.01   0.01    -0.02   0.01   0.01    -0.00   0.00   0.00
  52   1    -0.00   0.00  -0.02     0.01   0.01   0.02     0.00   0.00   0.00
  53   1     0.00  -0.00  -0.00    -0.02   0.02  -0.01    -0.00   0.00  -0.00
                     43                     44                     45
                        a                      a                      a 
 Frequencies --   457.6510               460.0204               465.5587
 Red. masses --     8.4545                 1.9987                 8.0599
 Frc consts  --     0.0000                 0.0000                 0.0000
 IR Inten    --     4.2800                20.6334                 2.8738
 Raman Activ --     0.0000                 0.0000                 0.0000
 Depolar     --     0.0000                 0.0000                 0.0000
 Atom AN      X      Y      Z        X      Y      Z        X      Y      Z
   1   8     0.00   0.01   0.01    -0.01   0.00  -0.01    -0.02   0.00   0.01
   2   6     0.00   0.00   0.00     0.01   0.01   0.00     0.16   0.06   0.07
   3   1     0.00   0.00   0.00     0.00   0.00  -0.00     0.06   0.04   0.01
   4   1     0.00  -0.00   0.00     0.00   0.00   0.00     0.04   0.02   0.02
   5   6     0.00   0.00  -0.01     0.01   0.01   0.01     0.20  -0.05   0.13
   6   1     0.01  -0.01  -0.02    -0.00   0.01   0.01    -0.00   0.05   0.14
   7   1    -0.01   0.02  -0.01     0.01  -0.01   0.01     0.13  -0.11   0.08
   8   7     0.00  -0.02   0.03     0.00   0.00  -0.02     0.13  -0.04  -0.30
   9   6    -0.01   0.03   0.02     0.00  -0.03  -0.01    -0.05  -0.15  -0.35
  10   1    -0.01   0.01   0.01    -0.00  -0.01  -0.01     0.04  -0.00  -0.08
  11   1    -0.00   0.02  -0.00     0.00  -0.01  -0.00    -0.02  -0.14  -0.11
  12   1     0.01   0.01  -0.00     0.00  -0.01   0.01    -0.11  -0.01  -0.09
  13   6    -0.00   0.01  -0.03    -0.01  -0.00   0.02    -0.20  -0.05   0.23
  14   1    -0.02  -0.01  -0.02     0.00   0.00   0.01    -0.02   0.03   0.11
  15   1     0.01   0.01  -0.01    -0.01  -0.01   0.00    -0.21  -0.12   0.05
  16   1    -0.00   0.01  -0.02    -0.00   0.00   0.01    -0.04   0.04   0.19
  17   6    -0.00  -0.03   0.01    -0.01   0.01  -0.01    -0.14   0.22   0.11
  18   1    -0.01  -0.01   0.00     0.00   0.00  -0.01    -0.05   0.03   0.12
  19   1     0.00  -0.01  -0.00    -0.00   0.00   0.00    -0.05   0.03   0.12
  20   1     0.00  -0.01   0.01    -0.01   0.00  -0.01    -0.10   0.19  -0.01
  21   1     0.00   0.00   0.00    -0.01   0.00  -0.00    -0.02  -0.02   0.01
  22   6     0.03   0.01  -0.05     0.00  -0.00   0.00    -0.01  -0.01  -0.00
  23   8     0.04   0.01  -0.05    -0.00   0.00   0.00    -0.00   0.00   0.00
  24   7    -0.03  -0.03  -0.02     0.00   0.00  -0.00     0.01   0.01  -0.02
  25   1     0.00  -0.03   0.03     0.00  -0.00   0.00     0.01  -0.00  -0.01
  26   1    -0.03  -0.02  -0.02     0.00  -0.00   0.00     0.01   0.01   0.00
  27   7     0.01   0.03   0.04    -0.00   0.00  -0.00    -0.00  -0.01  -0.01
  28   1     0.03   0.02   0.03     0.00  -0.00   0.00     0.00  -0.01  -0.00
  29   1    -0.03  -0.01   0.03     0.01  -0.01   0.00     0.01  -0.01  -0.00
  30   6     0.00   0.00   0.00     0.10   0.02   0.02     0.04   0.06  -0.02
  31   8     0.00   0.00   0.00     0.01   0.10   0.13     0.02   0.08  -0.01
  32   7    -0.00  -0.00  -0.00     0.01  -0.04  -0.15     0.04  -0.10  -0.03
  33   1    -0.00  -0.00   0.00     0.05  -0.06   0.08    -0.05  -0.04  -0.02
  34   1     0.00  -0.00   0.00    -0.05   0.00  -0.16     0.05  -0.06  -0.02
  35   7    -0.00  -0.00  -0.00     0.01  -0.06   0.07    -0.09  -0.01   0.04
  36   1    -0.00  -0.00   0.00     0.07  -0.08   0.50    -0.08   0.04  -0.01
  37   1    -0.00  -0.00  -0.00    -0.48   0.03  -0.62     0.02  -0.08   0.07
  38   6    -0.18  -0.04   0.25    -0.00  -0.00   0.00    -0.01  -0.00   0.01
  39   8    -0.20  -0.05   0.28    -0.00   0.00   0.00    -0.01  -0.00   0.02
  40   7    -0.12  -0.10  -0.38    -0.00   0.00  -0.00    -0.01  -0.00  -0.02
  41   1     0.14   0.20  -0.19     0.00   0.00  -0.00     0.01   0.01  -0.01
  42   1    -0.18  -0.19  -0.22    -0.00  -0.00  -0.00    -0.01  -0.01  -0.01
  43   7     0.37   0.17   0.03     0.00   0.00  -0.00     0.02   0.01   0.00
  44   1     0.23   0.20   0.14     0.00  -0.00   0.00     0.02   0.01   0.01
  45   1     0.17  -0.13  -0.23     0.00   0.00  -0.00     0.01  -0.00  -0.02
  46   6     0.00   0.00   0.00    -0.01   0.01  -0.00    -0.01   0.08   0.02
  47   8    -0.00   0.00   0.00    -0.01   0.01  -0.00    -0.10   0.04   0.00
  48   7     0.00   0.00   0.00     0.02  -0.01   0.01     0.11   0.02   0.01
  49   1     0.00  -0.00  -0.00     0.00  -0.01   0.02     0.03  -0.03  -0.02
  50   1     0.00  -0.00   0.00     0.00   0.02  -0.06     0.06   0.01   0.03
  51   7     0.00  -0.00  -0.00    -0.01  -0.02   0.01    -0.01  -0.09  -0.04
  52   1    -0.00  -0.00  -0.00    -0.01  -0.01  -0.01    -0.08  -0.06  -0.07
  53   1     0.00  -0.00   0.00     0.01  -0.00  -0.01     0.07  -0.10   0.05
                     46                     47                     48
                        a                      a                      a 
 Frequencies --   470.0095               473.9385               477.9117
 Red. masses --     4.7213                 8.0329                 6.0557
 Frc consts  --     0.0000                 0.0000                 0.0000
 IR Inten    --    15.9458                12.2064                 6.8456
 Raman Activ --     0.0000                 0.0000                 0.0000
 Depolar     --     0.0000                 0.0000                 0.0000
 Atom AN      X      Y      Z        X      Y      Z        X      Y      Z
   1   8     0.03   0.05   0.02     0.03   0.02   0.00    -0.03  -0.05  -0.03
   2   6    -0.01   0.01  -0.02    -0.03  -0.01  -0.03     0.04   0.00   0.03
   3   1    -0.01  -0.02  -0.02    -0.01  -0.01  -0.01     0.02   0.03   0.03
   4   1     0.02   0.00   0.00    -0.00   0.00  -0.01    -0.02   0.00  -0.00
   5   6    -0.04  -0.03   0.10    -0.04  -0.04   0.07     0.09  -0.00  -0.07
   6   1    -0.04   0.05   0.11    -0.03   0.03   0.08     0.05  -0.04  -0.08
   7   1     0.03  -0.09   0.06     0.02  -0.08   0.05    -0.00   0.06  -0.05
   8   7    -0.05  -0.03  -0.14    -0.03  -0.01  -0.08     0.08  -0.00   0.08
   9   6     0.06  -0.01  -0.13     0.07   0.02  -0.07    -0.08   0.03   0.04
  10   1     0.04   0.00  -0.04     0.05   0.02  -0.02    -0.03   0.02   0.03
  11   1     0.02  -0.00  -0.00     0.02  -0.01   0.01    -0.02  -0.01  -0.03
  12   1     0.03  -0.00  -0.05     0.02   0.01  -0.04    -0.05   0.02   0.01
  13   6    -0.03  -0.12   0.05     0.00  -0.08   0.02    -0.01   0.11  -0.02
  14   1     0.03  -0.00   0.05     0.03  -0.00   0.03    -0.05   0.00  -0.03
  15   1    -0.04  -0.07   0.02    -0.01  -0.04   0.01     0.00   0.05  -0.01
  16   1    -0.01  -0.05   0.04    -0.00  -0.04   0.02     0.00   0.06  -0.02
  17   6    -0.02   0.15   0.06    -0.01   0.11   0.05    -0.03  -0.11  -0.00
  18   1     0.02   0.01   0.06    -0.01   0.01   0.06    -0.06  -0.00  -0.02
  19   1    -0.00   0.07   0.05    -0.00   0.02   0.01    -0.01  -0.08  -0.02
  20   1    -0.03   0.09  -0.00     0.01   0.08   0.01     0.02  -0.03   0.01
  21   1    -0.00   0.01   0.00     0.00   0.01   0.00    -0.00  -0.02  -0.00
  22   6    -0.01  -0.01   0.00    -0.00  -0.00   0.00     0.02   0.01  -0.00
  23   8     0.00   0.00   0.01    -0.00  -0.00   0.00     0.00  -0.00  -0.02
  24   7     0.02   0.01  -0.01     0.01   0.00  -0.00    -0.02  -0.01   0.02
  25   1     0.00   0.01  -0.02     0.00   0.00  -0.00    -0.01  -0.00   0.02
  26   1     0.01   0.01   0.00     0.00   0.00   0.00    -0.01  -0.02  -0.00
  27   7    -0.00  -0.01  -0.01     0.00  -0.00  -0.01     0.01   0.02   0.01
  28   1    -0.00  -0.00  -0.01    -0.00  -0.00  -0.00     0.01   0.00   0.01
  29   1    -0.01   0.01  -0.01     0.00   0.00  -0.00     0.00  -0.01   0.01
  30   6    -0.03  -0.06   0.00    -0.17  -0.20   0.07    -0.04  -0.01   0.01
  31   8    -0.03  -0.06  -0.00    -0.08  -0.31  -0.02     0.00  -0.05  -0.03
  32   7    -0.01   0.09   0.02    -0.16   0.33   0.13    -0.03   0.03   0.03
  33   1     0.04   0.05  -0.00     0.12   0.16   0.02    -0.00   0.01   0.00
  34   1    -0.04   0.05   0.04    -0.16   0.18   0.13    -0.01   0.01   0.03
  35   7     0.07  -0.01  -0.04     0.32   0.05  -0.16     0.04   0.03  -0.01
  36   1     0.06  -0.03  -0.01     0.29  -0.15  -0.04     0.04  -0.02  -0.01
[...]
  44   1     0.00   0.00  -0.00    -0.00  -0.00   0.00    -0.01  -0.00   0.01
  45   1    -0.00   0.00  -0.00     0.01   0.00   0.00     0.03   0.00   0.00
  46   6    -0.01  -0.01  -0.00     0.00  -0.00  -0.00     0.00  -0.00  -0.00
  47   8    -0.00   0.00   0.00    -0.00   0.00   0.00    -0.00   0.00   0.00
  48   7    -0.20  -0.04  -0.03    -0.00  -0.00  -0.00    -0.00  -0.00  -0.00
  49   1     0.84   0.00   0.05     0.00  -0.00   0.00     0.00  -0.00  -0.00
  50   1    -0.10   0.13   0.05    -0.00   0.00   0.00    -0.00   0.00   0.00
  51   7     0.00   0.00  -0.00    -0.00   0.00   0.00    -0.00   0.00   0.00
  52   1     0.00  -0.01  -0.00    -0.00   0.00   0.00    -0.00   0.00   0.00
  53   1     0.01   0.01   0.00    -0.00  -0.00  -0.00    -0.00  -0.00  -0.00
                    142                    143                    144
                        a                      a                      a 
 Frequencies --  3496.1900              3499.4757              3500.0025
 Red. masses --     1.4397                 1.4547                 1.4641
 Frc consts  --     0.0000                 0.0000                 0.0000
 IR Inten    --    39.8081                15.6126                 3.6117
 Raman Activ --     0.0000                 0.0000                 0.0000
 Depolar     --     0.0000                 0.0000                 0.0000
 Atom AN      X      Y      Z        X      Y      Z        X      Y      Z
   1   8    -0.00  -0.00  -0.00     0.00  -0.00  -0.00    -0.00  -0.00  -0.00
   2   6     0.00  -0.00   0.00    -0.00   0.00   0.00    -0.00   0.00  -0.00
   3   1    -0.00   0.00  -0.00     0.00  -0.00  -0.00     0.00  -0.00   0.00
   4   1     0.00  -0.00  -0.00    -0.00   0.00   0.00     0.00  -0.00  -0.00
   5   6     0.00  -0.00  -0.00    -0.00   0.00  -0.00    -0.00   0.00   0.00
   6   1    -0.00   0.00  -0.00     0.00  -0.00   0.00    -0.00   0.00  -0.00
   7   1     0.00   0.00   0.00    -0.00  -0.00  -0.00    -0.00  -0.00   0.00
   8   7    -0.00  -0.00  -0.00    -0.00  -0.00   0.00     0.00   0.00  -0.00
   9   6    -0.00  -0.00   0.00    -0.00  -0.00  -0.00     0.00   0.00   0.00
  10   1    -0.00   0.00  -0.00     0.00  -0.00   0.00    -0.00   0.00  -0.00
  11   1     0.00  -0.00   0.00     0.00  -0.00  -0.00     0.00   0.00   0.00
  12   1     0.00   0.00   0.00     0.00   0.00   0.00    -0.00  -0.00   0.00
  13   6     0.00  -0.00   0.00    -0.00   0.00  -0.00    -0.00  -0.00   0.00
  14   1    -0.00   0.00  -0.00     0.00  -0.00   0.00    -0.00   0.00   0.00
  15   1     0.00  -0.00   0.00    -0.00  -0.00   0.00     0.00  -0.00  -0.00
  16   1    -0.00   0.00   0.00     0.00  -0.00  -0.00    -0.00  -0.00   0.00
  17   6    -0.00  -0.00  -0.00    -0.00  -0.00  -0.00     0.00  -0.00   0.00
  18   1     0.00   0.00   0.00     0.00   0.00   0.00     0.00   0.00   0.00
  19   1    -0.00  -0.00   0.00     0.00   0.00  -0.00    -0.00   0.00   0.00
  20   1     0.00  -0.00   0.00    -0.00  -0.00  -0.00    -0.00  -0.00   0.00
  21   1     0.00   0.00   0.00    -0.00   0.00   0.00    -0.00   0.00   0.00
  22   6     0.00   0.00   0.00    -0.00   0.00   0.00     0.00  -0.00  -0.00
  23   8    -0.00  -0.00  -0.00     0.00  -0.00  -0.00     0.00   0.00  -0.00
  24   7    -0.00   0.00   0.00     0.00  -0.00  -0.00    -0.00   0.00   0.01
  25   1    -0.00  -0.00  -0.00     0.00   0.00   0.00    -0.01  -0.01  -0.00
  26   1     0.00   0.00  -0.00    -0.00  -0.00   0.00     0.02   0.01  -0.02
  27   7    -0.00   0.00  -0.00     0.00   0.00   0.00    -0.00  -0.00   0.00
  28   1    -0.00  -0.00   0.00     0.00   0.00  -0.00     0.01   0.00  -0.02
  29   1     0.00  -0.00  -0.00    -0.00  -0.00  -0.00     0.00   0.01   0.02
  30   6     0.00   0.00  -0.00     0.00   0.00   0.00    -0.00  -0.00  -0.00
  31   8    -0.00  -0.00  -0.00    -0.00  -0.00   0.00     0.00   0.00  -0.00
  32   7    -0.00   0.00   0.00    -0.00  -0.01  -0.00    -0.00   0.00   0.00
  33   1     0.00  -0.00  -0.00    -0.01   0.02   0.01     0.00  -0.00  -0.00
  34   1     0.00  -0.00   0.00     0.02   0.03  -0.00    -0.00  -0.00   0.00
  35   7     0.00   0.00  -0.00    -0.02   0.15   0.10     0.00  -0.00  -0.00
  36   1    -0.00  -0.00  -0.00    -0.46  -0.58  -0.00     0.01   0.01   0.00
  37   1    -0.00   0.00   0.00     0.52   0.01  -0.38    -0.01  -0.00   0.01
  38   6    -0.00   0.00  -0.00     0.00   0.00  -0.00     0.00   0.00  -0.00
  39   8    -0.00  -0.00  -0.00    -0.00  -0.00   0.00    -0.00  -0.00   0.00
  40   7    -0.12  -0.01  -0.00     0.00   0.00   0.00     0.13   0.01   0.01
  41   1     0.17   0.03   0.41    -0.00  -0.00  -0.01    -0.19  -0.03  -0.45
  42   1     0.30   0.01  -0.40    -0.00  -0.00   0.01    -0.31  -0.01   0.42
  43   7    -0.04   0.01  -0.12    -0.00   0.00  -0.00    -0.05   0.01  -0.12
  44   1    -0.30  -0.13   0.42    -0.00  -0.00   0.01    -0.27  -0.12   0.39
  45   1     0.47   0.10   0.05     0.01   0.00   0.00     0.45   0.09   0.05
  46   6     0.00   0.00   0.00     0.00  -0.00  -0.00    -0.00   0.00  -0.00
  47   8    -0.00  -0.00  -0.00    -0.00   0.00   0.00     0.00  -0.00  -0.00
  48   7    -0.00  -0.00  -0.00    -0.00  -0.00  -0.00     0.00   0.00   0.00
  49   1     0.00   0.00   0.00     0.01   0.00   0.00    -0.00  -0.00   0.00
  50   1    -0.00   0.00   0.00    -0.01   0.01   0.00    -0.00   0.00   0.00
  51   7     0.00   0.00   0.00    -0.01   0.00  -0.00    -0.00   0.00  -0.00
  52   1    -0.00   0.00   0.00     0.01  -0.02  -0.00     0.00  -0.01  -0.00
  53   1    -0.00  -0.00  -0.00     0.01   0.01   0.01     0.00   0.01   0.00
                    145                    146                    147
                        a                      a                      a 
 Frequencies --  3501.0223              3537.6379              3543.0321
 Red. masses --     1.4482                 1.9533                 1.9613
 Frc consts  --     0.0000                 0.0000                 0.0000
 IR Inten    --    18.7533                12.8304                20.5633
 Raman Activ --     0.0000                 0.0000                 0.0000
 Depolar     --     0.0000                 0.0000                 0.0000
 Atom AN      X      Y      Z        X      Y      Z        X      Y      Z
   1   8     0.00  -0.00  -0.00    -0.00   0.00   0.00     0.00   0.00   0.00
   2   6    -0.00   0.00  -0.00     0.00  -0.00   0.00    -0.00  -0.00   0.00
   3   1     0.00  -0.00   0.00    -0.00   0.00  -0.00    -0.00   0.00  -0.00
   4   1    -0.00  -0.00   0.00     0.00  -0.00   0.00     0.00  -0.00  -0.00
   5   6    -0.00   0.00  -0.00    -0.00  -0.00   0.00    -0.00   0.00   0.00
   6   1     0.00  -0.00   0.00     0.00   0.00  -0.00     0.00   0.00  -0.00
   7   1     0.00  -0.00   0.00     0.00   0.00  -0.00     0.00  -0.00  -0.00
   8   7     0.00   0.00   0.00    -0.00   0.00   0.00    -0.00  -0.00   0.00
   9   6     0.00   0.00  -0.00     0.00   0.00   0.00     0.00  -0.00   0.00
  10   1     0.00  -0.00   0.00     0.00  -0.00  -0.00    -0.00  -0.00  -0.00
  11   1    -0.00   0.00  -0.00    -0.00   0.00  -0.00     0.00   0.00  -0.00
  12   1     0.00  -0.00  -0.00    -0.00  -0.00  -0.00     0.00   0.00  -0.00
  13   6     0.00  -0.00  -0.00    -0.00   0.00  -0.00     0.00  -0.00   0.00
  14   1     0.00  -0.00   0.00     0.00   0.00  -0.00    -0.00  -0.00   0.00
  15   1     0.00  -0.00  -0.00     0.00   0.00   0.00    -0.00  -0.00  -0.00
  16   1    -0.00   0.00   0.00     0.00   0.00   0.00     0.00   0.00   0.00
  17   6     0.00   0.00   0.00     0.00   0.00   0.00    -0.00  -0.00  -0.00
  18   1    -0.00  -0.00  -0.00    -0.00  -0.00  -0.00     0.00   0.00   0.00
  19   1    -0.00   0.00   0.00    -0.00   0.00   0.00     0.00  -0.00   0.00
  20   1     0.00   0.00  -0.00     0.00  -0.00   0.00    -0.00  -0.00  -0.00
  21   1    -0.00   0.00   0.00    -0.00  -0.00  -0.00    -0.00  -0.00  -0.01
  22   6    -0.00   0.00   0.00    -0.00  -0.00  -0.00     0.00  -0.00  -0.00
  23   8     0.00  -0.00  -0.00     0.00   0.00   0.00    -0.00   0.00   0.00
  24   7     0.00  -0.00  -0.00    -0.00  -0.00   0.00    -0.00  -0.00   0.00
  25   1     0.00   0.00   0.00     0.00   0.00   0.00     0.00   0.00   0.00
  26   1    -0.00  -0.00   0.00     0.00   0.00  -0.00     0.00   0.00  -0.00
  27   7     0.00   0.00   0.00     0.00  -0.00  -0.00     0.00  -0.00  -0.01
  28   1    -0.00  -0.00   0.00    -0.00  -0.00   0.00    -0.01  -0.00   0.01
  29   1    -0.00  -0.00  -0.00     0.00   0.00   0.00     0.00   0.02   0.03
  30   6    -0.00  -0.00  -0.00     0.00   0.00  -0.00     0.00  -0.01  -0.00
  31   8     0.00   0.00  -0.00    -0.00  -0.00   0.00     0.00   0.00   0.00
  32   7     0.00   0.00   0.00    -0.00  -0.00   0.00    -0.12  -0.24   0.01
  33   1     0.00  -0.00  -0.00     0.00  -0.00  -0.00    -0.06   0.12   0.08
  34   1    -0.00  -0.00   0.00     0.01   0.01  -0.00     0.50   0.79  -0.11
  35   7     0.00  -0.00  -0.00    -0.00  -0.00   0.00     0.03   0.01  -0.02
  36   1     0.01   0.02   0.00     0.01   0.02   0.00    -0.03  -0.04  -0.00
  37   1    -0.01  -0.00   0.01     0.00   0.00  -0.00    -0.09   0.00   0.07
  38   6    -0.00  -0.00   0.00     0.00  -0.00  -0.00     0.00   0.00  -0.00
  39   8     0.00   0.00  -0.00    -0.00   0.00   0.00    -0.00  -0.00   0.00
  40   7    -0.00  -0.00  -0.00     0.00   0.00  -0.00    -0.00  -0.00   0.00
  41   1     0.00   0.00   0.00     0.00   0.00   0.00    -0.00   0.00  -0.00
  42   1     0.00   0.00  -0.00    -0.00  -0.00   0.00     0.00   0.00  -0.00
  43   7     0.00  -0.00   0.00     0.00   0.00   0.00    -0.00  -0.00   0.00
  44   1     0.00   0.00  -0.00     0.00  -0.00  -0.00     0.00   0.00  -0.00
  45   1    -0.00  -0.00  -0.00    -0.00  -0.00  -0.00     0.00  -0.00  -0.00
  46   6    -0.00   0.00  -0.00     0.01  -0.00  -0.00    -0.00   0.00   0.00
  47   8     0.00  -0.00  -0.00    -0.00   0.00   0.00     0.00  -0.00  -0.00
  48   7     0.01  -0.00  -0.00     0.17  -0.20  -0.08    -0.00   0.00   0.00
  49   1    -0.02  -0.00  -0.00    -0.16  -0.02  -0.02     0.00   0.00   0.00
  50   1    -0.02   0.03   0.01    -0.47   0.75   0.32     0.01  -0.01  -0.00
  51   7    -0.18   0.02  -0.02     0.01   0.03   0.01    -0.00  -0.00  -0.00
  52   1     0.34  -0.63  -0.13     0.02  -0.03  -0.00    -0.00   0.00   0.00
  53   1     0.33   0.53   0.21    -0.05  -0.07  -0.03     0.00   0.00   0.00
                    148                    149                    150
                        a                      a                      a 
 Frequencies --  3548.5595              3559.3168              3560.1943
 Red. masses --     2.0540                 2.1873                 2.0293
 Frc consts  --     0.0000                 0.0000                 0.0000
 IR Inten    --    48.7291                12.1872                43.9152
 Raman Activ --     0.0000                 0.0000                 0.0000
 Depolar     --     0.0000                 0.0000                 0.0000
 Atom AN      X      Y      Z        X      Y      Z        X      Y      Z
   1   8    -0.00  -0.00  -0.00     0.00   0.00   0.00    -0.00  -0.00  -0.00
   2   6     0.00   0.00  -0.00    -0.00  -0.00  -0.00     0.00   0.00  -0.00
   3   1     0.00  -0.00   0.00     0.00  -0.00   0.00     0.00  -0.00   0.00
   4   1     0.00  -0.00  -0.00    -0.00   0.00   0.00     0.00  -0.00  -0.00
   5   6     0.00  -0.00  -0.00    -0.00   0.00   0.00     0.00  -0.00  -0.00
   6   1    -0.00  -0.00  -0.00     0.00  -0.00   0.00     0.00  -0.00  -0.00
   7   1    -0.00  -0.00   0.00     0.00   0.00  -0.00    -0.00  -0.00   0.00
   8   7    -0.00  -0.00  -0.00     0.00   0.00   0.00    -0.00  -0.00   0.00
   9   6    -0.00  -0.00  -0.00     0.00   0.00  -0.00     0.00  -0.00  -0.00
  10   1     0.00   0.00  -0.00    -0.00  -0.00   0.00     0.00  -0.00  -0.00
  11   1     0.00  -0.00  -0.00    -0.00   0.00  -0.00    -0.00  -0.00  -0.00
  12   1     0.00   0.00   0.00    -0.00  -0.00  -0.00     0.00   0.00   0.00
  13   6    -0.00   0.00   0.00     0.00  -0.00  -0.00    -0.00  -0.00   0.00
  14   1     0.00   0.00   0.00    -0.00  -0.00   0.00     0.00   0.00  -0.00
  15   1     0.00  -0.00  -0.00    -0.00   0.00   0.00    -0.00  -0.00  -0.00
  16   1    -0.00   0.00   0.00     0.00   0.00  -0.00     0.00  -0.00  -0.00
  17   6    -0.00  -0.00  -0.00    -0.00   0.00   0.00     0.00  -0.00  -0.00
  18   1     0.00   0.00   0.00    -0.00  -0.00  -0.00     0.00   0.00   0.00
  19   1     0.00  -0.00  -0.00     0.00   0.00   0.00     0.00  -0.00  -0.00
  20   1    -0.00  -0.00   0.00     0.00  -0.00  -0.00    -0.00   0.00   0.00
  21   1     0.00   0.00   0.01    -0.00  -0.00  -0.00     0.00   0.00   0.00
  22   6     0.00  -0.00  -0.01    -0.00  -0.00   0.00     0.01   0.00  -0.01
  23   8    -0.00   0.00   0.00     0.00   0.00   0.00    -0.00  -0.00   0.00
  24   7    -0.05  -0.04   0.00    -0.02  -0.02   0.00     0.20   0.18  -0.01
  25   1     0.16   0.16   0.03     0.05   0.06   0.01    -0.62  -0.63  -0.13
  26   1     0.02   0.01  -0.03     0.01   0.00  -0.01    -0.14  -0.04   0.18
  27   7     0.01  -0.11  -0.25    -0.00   0.00   0.01     0.00  -0.03  -0.06
  28   1    -0.17  -0.06   0.22     0.01   0.00  -0.01    -0.05  -0.02   0.07
  29   1     0.12   0.47   0.74    -0.00  -0.01  -0.02     0.03   0.11   0.17
  30   6     0.00   0.00  -0.00    -0.00  -0.00   0.00     0.00  -0.00  -0.00
  31   8    -0.00  -0.00   0.00     0.00   0.00   0.00    -0.00  -0.00   0.00
  32   7     0.00   0.01   0.00    -0.00  -0.00  -0.00     0.00   0.00   0.00
  33   1     0.00  -0.01  -0.00    -0.00   0.00   0.00     0.00  -0.00  -0.00
  34   1    -0.02  -0.03   0.00     0.00   0.00  -0.00    -0.00  -0.00   0.00
  35   7    -0.00  -0.00   0.00    -0.00  -0.00   0.00    -0.00  -0.00   0.00
  36   1     0.00   0.00   0.00     0.00   0.00   0.00     0.00   0.00   0.00
  37   1     0.01  -0.00  -0.00     0.00  -0.00  -0.00     0.00  -0.00  -0.00
  38   6     0.00   0.00  -0.00     0.01   0.00   0.01     0.00   0.00  -0.00
  39   8    -0.00   0.00   0.00    -0.00  -0.00  -0.00    -0.00  -0.00   0.00
  40   7    -0.00  -0.00   0.01    -0.02   0.00   0.20    -0.01   0.00   0.04
  41   1    -0.00  -0.00  -0.01    -0.20  -0.03  -0.43    -0.04  -0.01  -0.08
  42   1     0.01   0.00  -0.01     0.27   0.01  -0.33     0.06   0.00  -0.07
  43   7    -0.00  -0.00   0.00     0.20   0.06  -0.08     0.00  -0.00   0.00
  44   1     0.01   0.00  -0.01    -0.25  -0.12   0.38     0.00   0.00  -0.01
  45   1     0.00   0.00   0.00    -0.51  -0.10  -0.08    -0.01  -0.00  -0.00
  46   6     0.00   0.00   0.00    -0.00  -0.00  -0.00     0.00  -0.00  -0.00
  47   8    -0.00  -0.00  -0.00     0.00   0.00   0.00    -0.00   0.00   0.00
  48   7    -0.00   0.00   0.00     0.00  -0.00  -0.00    -0.00   0.00   0.00
  49   1     0.00   0.00   0.00    -0.00  -0.00  -0.00     0.00   0.00   0.00
  50   1     0.00  -0.00  -0.00    -0.00   0.00   0.00     0.00  -0.00  -0.00
  51   7    -0.00  -0.00  -0.00     0.00   0.00   0.00    -0.00  -0.00  -0.00
  52   1     0.00  -0.00  -0.00     0.00  -0.00  -0.00    -0.00   0.00   0.00
  53   1     0.00   0.00   0.00    -0.00  -0.00  -0.00     0.00   0.00   0.00
                    151                    152                    153
                        a                      a                      a 
 Frequencies --  3564.3481              3564.8200              3567.7943
 Red. masses --     2.1726                 2.1743                 2.1813
 Frc consts  --     0.0000                 0.0000                 0.0000
 IR Inten    --    13.2970                19.8017                10.5669
 Raman Activ --     0.0000                 0.0000                 0.0000
 Depolar     --     0.0000                 0.0000                 0.0000
 Atom AN      X      Y      Z        X      Y      Z        X      Y      Z
   1   8     0.00   0.00   0.00     0.00   0.00   0.00     0.00   0.00  -0.00
   2   6    -0.00  -0.00   0.00    -0.00  -0.00  -0.00    -0.00  -0.00  -0.00
   3   1     0.00   0.00  -0.00    -0.00  -0.00   0.00     0.00   0.00   0.00
   4   1    -0.00  -0.00  -0.00    -0.00   0.00   0.00     0.00  -0.00  -0.00
   5   6    -0.00   0.00   0.00    -0.00  -0.00   0.00    -0.00   0.00  -0.00
   6   1     0.00   0.00  -0.00    -0.00  -0.00   0.00     0.00  -0.00   0.00
   7   1     0.00  -0.00  -0.00     0.00   0.00  -0.00     0.00   0.00   0.00
   8   7    -0.00  -0.00   0.00     0.00   0.00   0.00    -0.00   0.00   0.00
   9   6    -0.00  -0.00  -0.00     0.00   0.00  -0.00     0.00   0.00   0.00
  10   1     0.00  -0.00   0.00     0.00  -0.00   0.00     0.00   0.00  -0.00
  11   1     0.00   0.00  -0.00    -0.00   0.00   0.00    -0.00   0.00  -0.00
  12   1     0.00   0.00   0.00    -0.00  -0.00  -0.00     0.00  -0.00  -0.00
  13   6    -0.00   0.00   0.00     0.00   0.00  -0.00     0.00  -0.00  -0.00
  14   1    -0.00  -0.00   0.00    -0.00  -0.00   0.00     0.00   0.00   0.00
  15   1    -0.00  -0.00  -0.00     0.00   0.00   0.00     0.00   0.00   0.00
  16   1     0.00   0.00   0.00    -0.00   0.00   0.00    -0.00   0.00   0.00
  17   6    -0.00  -0.00  -0.00    -0.00   0.00   0.00     0.00   0.00  -0.00
  18   1    -0.00   0.00   0.00    -0.00  -0.00  -0.00     0.00  -0.00  -0.00
  19   1     0.00   0.00   0.00    -0.00   0.00   0.00    -0.00  -0.00   0.00
  20   1    -0.00  -0.00  -0.00     0.00  -0.00  -0.00     0.00   0.00   0.00
  21   1    -0.00  -0.00  -0.00    -0.00  -0.00  -0.00    -0.00   0.00   0.00
  22   6    -0.00  -0.00   0.00    -0.00  -0.00   0.00    -0.00  -0.00   0.00
  23   8     0.00   0.00   0.00     0.00   0.00   0.00     0.00   0.00  -0.00
  24   7    -0.00  -0.00   0.00    -0.02  -0.02   0.00    -0.00  -0.00  -0.00
  25   1     0.00   0.00   0.00     0.06   0.06   0.01     0.00   0.00   0.00
  26   1     0.00   0.00  -0.00     0.02   0.01  -0.02     0.00   0.00  -0.00
  27   7    -0.00   0.00   0.00    -0.00   0.00   0.01     0.00   0.00   0.00
  28   1     0.00   0.00  -0.00     0.01   0.00  -0.02    -0.00   0.00   0.00
  29   1    -0.00  -0.00  -0.00    -0.00  -0.02  -0.03    -0.00  -0.00  -0.00
  30   6    -0.01  -0.01   0.00     0.00   0.00  -0.00     0.00   0.00  -0.00
  31   8     0.00   0.00  -0.00    -0.00  -0.00   0.00    -0.00  -0.00   0.00
  32   7    -0.01  -0.03   0.00     0.00   0.00  -0.00     0.00   0.00   0.00
  33   1    -0.01   0.02   0.01     0.00  -0.00  -0.00     0.00  -0.00  -0.00
  34   1     0.06   0.10  -0.01    -0.00  -0.00   0.00    -0.00  -0.00   0.00
  35   7    -0.25  -0.13   0.11     0.01   0.00  -0.00     0.01   0.00  -0.00
  36   1     0.37   0.50   0.02    -0.01  -0.01  -0.00    -0.01  -0.01  -0.00
  37   1     0.56  -0.02  -0.44    -0.01   0.00   0.01    -0.02   0.00   0.01
  38   6    -0.00  -0.00   0.00    -0.01  -0.00   0.01    -0.00  -0.00   0.00
  39   8     0.00   0.00  -0.00     0.00   0.00  -0.00     0.00   0.00  -0.00
  40   7    -0.00   0.00   0.00    -0.02   0.01   0.22    -0.00   0.00   0.00
  41   1    -0.00  -0.00  -0.01    -0.22  -0.03  -0.46    -0.00  -0.00  -0.00
  42   1     0.01   0.00  -0.01     0.30   0.01  -0.37     0.00   0.00  -0.00
  43   7    -0.00  -0.00   0.00    -0.18  -0.05   0.08    -0.00  -0.00   0.00
  44   1     0.01   0.00  -0.01     0.23   0.11  -0.36     0.00   0.00  -0.00
  45   1     0.01   0.00   0.00     0.46   0.09   0.07     0.00   0.00   0.00
  46   6    -0.00  -0.00  -0.00     0.00   0.00   0.00    -0.00  -0.01  -0.00
  47   8    -0.00   0.00   0.00     0.00  -0.00  -0.00     0.00   0.00   0.00
  48   7    -0.00   0.00   0.00     0.00  -0.00  -0.00     0.02  -0.02  -0.01
  49   1     0.01   0.00   0.00    -0.00  -0.00  -0.00    -0.02  -0.00  -0.00
  50   1     0.01  -0.01  -0.01    -0.00   0.00   0.00    -0.04   0.07   0.03
  51   7    -0.00  -0.01  -0.00     0.00   0.00   0.00    -0.01  -0.29  -0.09
  52   1    -0.01   0.02   0.00     0.00  -0.00  -0.00    -0.32   0.54   0.10
  53   1     0.01   0.02   0.01    -0.00  -0.00  -0.00     0.38   0.54   0.23
