      -----------------------------------------------------------      
     |                   =====================                   |     
     |                           x T B                           |     
     |                   =====================                   |     
     |                         S. Grimme                         |     
     |          Mulliken Center for Theoretical Chemistry        |     
     |                    University of Bonn                     |     
      -----------------------------------------------------------      

   * xtb version 6.6.1 (unknown-commit) compiled by '@Linux' on 12/27/2023

   xtb is free software: you can redistribute it and/or modify it under
   the terms of the GNU Lesser General Public License as published by
   the Free Software Foundation, either version 3 of the License, or
   (at your option) any later version.
   
   xtb is distributed in the hope that it will be useful,
   but WITHOUT ANY WARRANTY; without even the implied warranty of
   MERCHANTABILITY or FITNESS FOR A PARTICULAR PURPOSE.  See the
   GNU Lesser General Public License for more details.
   
   Cite this work as:
   * C. Bannwarth, E. Caldeweyher, S. Ehlert, A. Hansen, P. Pracht,
     J. Seibert, S. Spicher, S. Grimme, WIREs Comput. Mol. Sci., 2020, 11,
     e01493. DOI: 10.1002/wcms.1493
   
   for GFN2-xTB:
   * C. Bannwarth, S. Ehlert and S. Grimme., J. Chem. Theory Comput., 2019,
     15, 1652-1671. DOI: 10.1021/acs.jctc.8b01176
   for GFN1-xTB:
   * S. Grimme, C. Bannwarth, P. Shushkov, J. Chem. Theory Comput., 2017,
     13, 1989-2009. DOI: 10.1021/acs.jctc.7b00118
   for GFN0-xTB:
   * P. Pracht, E. Caldeweyher, S. Ehlert, S. Grimme, ChemRxiv, 2019, preprint.
     DOI: 10.26434/chemrxiv.8326202.v1
   for GFN-FF:
   * S. Spicher and S. Grimme, Angew. Chem. Int. Ed., 2020, 59, 15665-15673.
     DOI: 10.1002/anie.202004239
   
   for ALPB and GBSA implicit solvation:
   * S. Ehlert, M. Stahn, S. Spicher, S. Grimme, J. Chem. Theory Comput.,
     2021, 17, 4250-4261. DOI: 10.1021/acs.jctc.1c00471
   
   for DFT-D4:
   * E. Caldeweyher, C. Bannwarth and S. Grimme, J. Chem. Phys., 2017,
     147, 034112. DOI: 10.1063/1.4993215
   * E. Caldeweyher, S. Ehlert, A. Hansen, H. Neugebauer, S. Spicher,
     C. Bannwarth and S. Grimme, J. Chem. Phys., 2019, 150, 154122.
     DOI: 10.1063/1.5090222
   * E. Caldeweyher, J.-M. Mewes, S. Ehlert and S. Grimme, Phys. Chem. Chem. Phys.
     2020, 22, 8499-8512. DOI: 10.1039/D0CP00502A
   
   for sTDA-xTB:
   * S. Grimme and C. Bannwarth, J. Chem. Phys., 2016, 145, 054103.
     DOI: 10.1063/1.4959605
   
   in the mass-spec context:
   * V. Asgeirsson, C. Bauer and S. Grimme, Chem. Sci., 2017, 8, 4879.
     DOI: 10.1039/c7sc00601b
   * J. Koopman and S. Grimme, ACS Omega 2019, 4, 12, 15120-15133.
     DOI: 10.1021/acsomega.9b02011
   
   for metadynamics refer to:
   * S. Grimme, J. Chem. Theory Comput., 2019, 155, 2847-2862
     DOI: 10.1021/acs.jctc.9b00143
   
   for SPH calculations refer to:
   * S. Spicher and S. Grimme, J. Chem. Theory Comput., 2021, 17, 1701-1714
     DOI: 10.1021/acs.jctc.0c01306
   
   with help from (in alphabetical order)
   P. Atkinson, C. Bannwarth, F. Bohle, G. Brandenburg, E. Caldeweyher
   M. Checinski, S. Dohm, S. Ehlert, S. Ehrlich, I. Gerasimov, C. Hölzer
   A. Katbashev, J. Koopman, C. Lavigne, S. Lehtola, F. März, M. Müller,
   F. Musil, H. Neugebauer, J. Pisarek, C. Plett, P. Pracht, F. Pultar,
   J. Seibert, P. Shushkov, S. Spicher, M. Stahn, M. Steiner, T. Strunk,
   J. Stückrath, T. Rose, and J. Unsleber
   
 * started run on 2024/01/10 at 15:32:59.612     

           -------------------------------------------------
          |                Calculation Setup                |
           -------------------------------------------------

          program call               : xtb struc.xyz --gfn2 --hess
          hostname                   : swaroop
          coordinate file            : struc.xyz
          omp threads                :                     1

   ID    Z sym.   atoms
    1    8 O      1, 23, 31, 39, 47
    2    6 C      2, 5, 9, 13, 17, 22, 30, 38, 46
    3    1 H      3, 4, 6, 7, 10-12, 14-16, 18-21, 25, 26, 28, 29, 33, 34,
                  36, 37, 41, 42, 44, 45, 49, 50, 52, 53
    4    7 N      8, 24, 27, 32, 35, 40, 43, 48, 51

molecular fragmentation (1/2 indicates fragments):
11111111111111111111122222222222222222222222222222222
# atoms in fragment 1/2:    21    32
 fragment masses (1/2) :      104.17      240.22
CMA distance (Bohr)    :   5.691
constraining FC (au)   :  0.0500

           -------------------------------------------------
          |                 G F N 2 - x T B                 |
           -------------------------------------------------

        Reference                      10.1021/acs.jctc.8b01176
      * Hamiltonian:
        H0-scaling (s, p, d)           1.850000    2.230000    2.230000
        zeta-weighting                 0.500000
      * Dispersion:
        s8                             2.700000
        a1                             0.520000
        a2                             5.000000
        s9                             5.000000
      * Repulsion:
        kExp                           1.500000    1.000000
        rExp                           1.000000
      * Coulomb:
        alpha                          2.000000
        third order                    shell-resolved
        anisotropic                    true
        a3                             3.000000
        a5                             4.000000
        cn-shift                       1.200000
        cn-exp                         4.000000
        max-rad                        5.000000


          ...................................................
          :                      SETUP                      :
          :.................................................:
          :  # basis functions                 122          :
          :  # atomic orbitals                 122          :
          :  # shells                           76          :
          :  # electrons                       140          :
          :  max. iterations                   250          :
          :  Hamiltonian                  GFN2-xTB          :
          :  restarted?                      false          :
          :  GBSA solvation                  false          :
          :  PC potential                    false          :
          :  electronic temp.          300.0000000     K    :
          :  accuracy                    1.0000000          :
          :  -> integral cutoff          0.2500000E+02      :
          :  -> integral neglect         0.1000000E-07      :
          :  -> SCF convergence          0.1000000E-05 Eh   :
          :  -> wf. convergence          0.1000000E-03 e    :
          :  Broyden damping             0.4000000          :
          ...................................................

 iter      E             dE          RMSdq      gap      omega  full diag
   1    -81.5669559 -0.815670E+02  0.435E+00    5.13       0.0  T
   2    -81.8462030 -0.279247E+00  0.238E+00    6.08       1.0  T
   3    -81.8519348 -0.573172E-02  0.115E+00    5.78       1.0  T
   4    -81.8533573 -0.142250E-02  0.247E-01    5.85       1.0  T
   5    -81.8542835 -0.926277E-03  0.924E-02    5.77       1.0  T
   6    -81.8543087 -0.251210E-04  0.268E-02    5.79       1.0  T
   7    -81.8543126 -0.393396E-05  0.782E-03    5.79       1.8  T
   8    -81.8543129 -0.310728E-06  0.273E-03    5.79       5.0  T
   9    -81.8543129 -0.161291E-07  0.971E-04    5.78      14.2  T
  10    -81.8543129 -0.603474E-08  0.186E-04    5.79      73.8  T

   *** convergence criteria satisfied after 10 iterations ***

         #    Occupation            Energy/Eh            Energy/eV
      -------------------------------------------------------------
         1        2.0000           -0.8004811             -21.7822
       ...           ...                  ...                  ...
        64        2.0000           -0.5009070             -13.6304
        65        2.0000           -0.5004253             -13.6173
        66        2.0000           -0.4993463             -13.5879
        67        2.0000           -0.4971105             -13.5271
        68        2.0000           -0.4939167             -13.4402
        69        2.0000           -0.4922398             -13.3945
        70        2.0000           -0.4882315             -13.2855 (HOMO)
        71                         -0.2756355              -7.5004 (LUMO)
        72                         -0.2728361              -7.4242
        73                         -0.2692962              -7.3279
        74                         -0.2625132              -7.1433
        75                         -0.1543299              -4.1995
       ...                                ...                  ...
       122                          0.5511405              14.9973
      -------------------------------------------------------------
                  HL-Gap            0.2125960 Eh            5.7850 eV
             Fermi-level           -0.3819335 Eh          -10.3929 eV

 SCC (total)                   0 d,  0 h,  0 min,  0.071 sec
 SCC setup                      ...        0 min,  0.000 sec (  0.396%)
 Dispersion                     ...        0 min,  0.001 sec (  0.815%)
 classical contributions        ...        0 min,  0.000 sec (  0.250%)
 integral evaluation            ...        0 min,  0.008 sec ( 11.412%)
 iterations                     ...        0 min,  0.034 sec ( 47.873%)
 molecular gradient             ...        0 min,  0.028 sec ( 38.893%)
 printout                       ...        0 min,  0.000 sec (  0.345%)

         :::::::::::::::::::::::::::::::::::::::::::::::::::::
         ::                     SUMMARY                     ::
         :::::::::::::::::::::::::::::::::::::::::::::::::::::
         :: total energy             -80.940629166746 Eh    ::
         :: gradient norm              0.000165323652 Eh/a0 ::
         :: HOMO-LUMO gap              5.785031519697 eV    ::
         ::.................................................::
         :: SCC energy               -81.854312920962 Eh    ::
         :: -> isotropic ES            0.295009460573 Eh    ::
         :: -> anisotropic ES         -0.029120269258 Eh    ::
         :: -> anisotropic XC          0.020348911265 Eh    ::
         :: -> dispersion             -0.047555071965 Eh    ::
         :: repulsion energy           0.911641029038 Eh    ::
         :: add. restraining           0.000000000000 Eh    ::
         :: total charge               1.000000000000 e     ::
         :::::::::::::::::::::::::::::::::::::::::::::::::::::

           ------------------------------------------------- 
          |                Numerical Hessian                |
           ------------------------------------------------- 
step length          :   0.00500
SCC accuracy         :   0.30000
Hessian scale factor :   1.00000
frozen atoms in %    :   0.00000    0
RMS gradient         :   0.00017
estimated CPU  time      0.24 min
estimated wall time      0.24 min

writing file <hessian>.

 projected vibrational frequencies (cm⁻¹)
eigval :       -0.00    -0.00    -0.00    -0.00     0.00     0.00
eigval :       21.77    27.71    32.49    37.61    41.83    43.86
eigval :       50.26    52.95    56.84    66.07    70.45    73.45
eigval :       80.42    95.31   100.24   104.40   106.88   117.03
eigval :      124.92   130.45   139.16   156.19   169.20   171.29
eigval :      197.74   205.31   236.98   253.21   288.03   290.51
eigval :      292.08   297.75   323.66   327.19   354.18   378.91
eigval :      382.50   428.92   429.66   442.01   454.06   463.34
eigval :      468.44   469.62   470.35   475.58   479.62   482.34
eigval :      485.55   491.66   498.33   539.51   545.23   547.04
eigval :      554.45   576.30   619.98   658.55   669.75   675.80
eigval :      676.85   688.80   719.69   747.21   764.44   785.83
eigval :      917.74   932.24   958.46   963.63   967.44   984.75
eigval :      992.27  1004.93  1010.19  1016.15  1019.64  1023.31
eigval :     1032.73  1038.49  1042.04  1083.45  1084.49  1086.58
eigval :     1091.15  1100.26  1103.64  1125.03  1161.85  1221.67
eigval :     1244.67  1273.76  1323.07  1326.69  1351.13  1352.96
eigval :     1358.92  1360.84  1373.02  1393.91  1403.80  1410.03
eigval :     1421.40  1437.31  1443.79  1447.67  1454.68  1456.65
eigval :     1457.18  1460.16  1463.84  1469.50  1472.51  1480.79
eigval :     1482.98  1502.62  1504.96  1515.25  1526.07  1643.65
eigval :     1680.52  1700.70  1714.84  2915.31  2982.59  2985.10
eigval :     3002.20  3027.12  3041.16  3042.44  3045.70  3049.04
eigval :     3049.85  3056.35  3061.71  3063.53  3119.52  3222.12
eigval :     3296.40  3344.67  3415.85  3461.91  3495.37  3496.89
eigval :     3497.95  3501.98  3524.55  3533.83  3543.18  3561.65
eigval :     3562.11  3562.26  3567.78
           -------------------------------------------------
          |                Property Printout                |
           -------------------------------------------------

    * Orbital Energies and Occupations

         #    Occupation            Energy/Eh            Energy/eV
      -------------------------------------------------------------
         1        2.0000           -0.8004805             -21.7822
       ...           ...                  ...                  ...
        58        2.0000           -0.5122952             -13.9403
        59        2.0000           -0.5116215             -13.9219
        60        2.0000           -0.5070216             -13.7968
        61        2.0000           -0.5065604             -13.7842
        62        2.0000           -0.5036404             -13.7048
        63        2.0000           -0.5009745             -13.6322
        64        2.0000           -0.5009074             -13.6304
        65        2.0000           -0.5004263             -13.6173
        66        2.0000           -0.4993486             -13.5880
        67        2.0000           -0.4971111             -13.5271
        68        2.0000           -0.4939171             -13.4402
        69        2.0000           -0.4922420             -13.3946
        70        2.0000           -0.4882338             -13.2855 (HOMO)
        71                         -0.2756363              -7.5004 (LUMO)
        72                         -0.2728358              -7.4242
        73                         -0.2692964              -7.3279
        74                         -0.2625179              -7.1435
        75                         -0.1543292              -4.1995
        76                         -0.1115345              -3.0350
        77                         -0.0901138              -2.4521
        78                         -0.0894896              -2.4351
        79                         -0.0842001              -2.2912
        80                         -0.0779874              -2.1221
        81                         -0.0708722              -1.9285
       ...                                ...                  ...
       122                          0.5511379              14.9972
      -------------------------------------------------------------
                  HL-Gap            0.2125974 Eh            5.7851 eV
             Fermi-level           -0.3819351 Eh          -10.3930 eV

     #   Z          covCN         q      C6AA      α(0)
     1   8 O        1.655    -0.460    22.049     6.339
     2   6 C        3.673     0.073    19.578     6.341
     3   1 H        0.924     0.054     2.273     2.358
     4   1 H        0.924     0.047     2.361     2.403
     5   6 C        3.771    -0.077    21.995     6.683
     6   1 H        0.924     0.114     1.664     2.017
     7   1 H        0.924     0.117     1.641     2.003
     8   7 N        3.624     0.156    18.607     6.407
     9   6 C        3.738    -0.118    22.851     6.821
    10   1 H        0.925     0.119     1.622     1.992
    11   1 H        0.925     0.083     1.949     2.183
    12   1 H        0.925     0.119     1.624     1.993
    13   6 C        3.723    -0.106    22.648     6.796
    14   1 H        0.925     0.086     1.914     2.163
    15   1 H        0.925     0.084     1.935     2.175
    16   1 H        0.924     0.125     1.573     1.961
    17   6 C        3.720    -0.103    22.585     6.788
    18   1 H        0.925     0.110     1.698     2.038
    19   1 H        0.925     0.110     1.695     2.036
    20   1 H        0.925     0.078     1.999     2.211
    21   1 H        0.804     0.323     0.657     1.273
    22   6 C        2.675     0.342    21.183     7.531
    23   8 O        0.860    -0.538    24.641     6.655
    24   7 N        2.644    -0.316    28.127     7.877
    25   1 H        0.860     0.238     0.931     1.512
    26   1 H        0.860     0.176     1.235     1.741
    27   7 N        2.645    -0.296    27.620     7.805
    28   1 H        0.861     0.182     1.203     1.718
    29   1 H        0.860     0.195     1.132     1.667
    30   6 C        2.675     0.343    21.181     7.531
    31   8 O        0.861    -0.552    24.964     6.699
    32   7 N        2.645    -0.285    27.357     7.768
    33   1 H        0.860     0.203     1.092     1.637
    34   1 H        0.861     0.188     1.169     1.694
    35   7 N        2.644    -0.301    27.753     7.824
    36   1 H        0.861     0.182     1.200     1.716
    37   1 H        0.859     0.251     0.879     1.469
    38   6 C        2.675     0.341    21.200     7.534
    39   8 O        0.860    -0.540    24.676     6.660
    40   7 N        2.645    -0.298    27.688     7.815
    41   1 H        0.860     0.235     0.946     1.523
    42   1 H        0.861     0.181     1.209     1.722
    43   7 N        2.645    -0.294    27.579     7.800
    44   1 H        0.861     0.184     1.192     1.711
    45   1 H        0.860     0.198     1.117     1.655
    46   6 C        2.675     0.341    21.211     7.536
    47   8 O        0.860    -0.520    24.239     6.601
    48   7 N        2.644    -0.313    28.064     7.868
    49   1 H        0.860     0.232     0.955     1.531
    50   1 H        0.860     0.202     1.094     1.639
    51   7 N        2.645    -0.288    27.430     7.779
    52   1 H        0.861     0.188     1.168     1.693
    53   1 H        0.860     0.204     1.085     1.632

 Mol. C6AA /au·bohr⁶  :      21789.417585
 Mol. C8AA /au·bohr⁸  :     454309.103522
 Mol. α(0) /au        :        220.522794


Wiberg/Mayer (AO) data.
largest (>0.10) Wiberg bond orders for each atom

 ---------------------------------------------------------------------------
     #   Z sym  total        # sym  WBO       # sym  WBO       # sym  WBO
 ---------------------------------------------------------------------------
     1   8 O    1.953 --     2 C    1.017    21 H    0.847
     2   6 C    3.966 --     1 O    1.017     5 C    0.995     3 H    0.964
                             4 H    0.964
     3   1 H    0.997 --     2 C    0.964
     4   1 H    0.998 --     2 C    0.964
     5   6 C    3.920 --     2 C    0.995     6 H    0.951     7 H    0.947
                             8 N    0.929
     6   1 H    0.987 --     5 C    0.951
     7   1 H    0.986 --     5 C    0.947
     8   7 N    3.821 --    13 C    0.962    17 C    0.960     9 C    0.954
                             5 C    0.929
     9   6 C    3.919 --    11 H    0.978    10 H    0.966    12 H    0.965
                             8 N    0.954
    10   1 H    0.986 --     9 C    0.966
    11   1 H    0.993 --     9 C    0.978
    12   1 H    0.986 --     9 C    0.965
    13   6 C    3.930 --    15 H    0.977    14 H    0.974     8 N    0.962
                            16 H    0.961
    14   1 H    0.992 --    13 C    0.974
    15   1 H    0.993 --    13 C    0.977
    16   1 H    0.984 --    13 C    0.961
    17   6 C    3.928 --    20 H    0.979    18 H    0.970    19 H    0.967
                             8 N    0.960
    18   1 H    0.988 --    17 C    0.970
    19   1 H    0.988 --    17 C    0.967
    20   1 H    0.994 --    17 C    0.979
    21   1 H    0.896 --     1 O    0.847
    22   6 C    3.959 --    23 O    1.518    24 N    1.237    27 N    1.196
    23   8 O    1.881 --    22 C    1.518    24 N    0.145    27 N    0.136
    24   7 N    3.323 --    22 C    1.237    26 H    0.949    25 H    0.874
                            23 O    0.145
    25   1 H    0.943 --    24 N    0.874
    26   1 H    0.969 --    24 N    0.949
    27   7 N    3.311 --    22 C    1.196    28 H    0.948    29 H    0.945
                            23 O    0.136
    28   1 H    0.967 --    27 N    0.948
    29   1 H    0.962 --    27 N    0.945
    30   6 C    3.959 --    31 O    1.438    35 N    1.282    32 N    1.223
    31   8 O    1.880 --    30 C    1.438    35 N    0.138    32 N    0.125
    32   7 N    3.337 --    30 C    1.223    34 H    0.946    33 H    0.942
                            31 O    0.125
    33   1 H    0.959 --    32 N    0.942
    34   1 H    0.964 --    32 N    0.946
    35   7 N    3.362 --    30 C    1.282    36 H    0.947    37 H    0.858
                            31 O    0.138
    36   1 H    0.966 --    35 N    0.947
    37   1 H    0.937 --    35 N    0.858
    38   6 C    3.959 --    39 O    1.508    40 N    1.243    43 N    1.200
    39   8 O    1.873 --    38 C    1.508    40 N    0.147    43 N    0.135
    40   7 N    3.343 --    38 C    1.243    42 H    0.948    41 H    0.901
                            39 O    0.147
    41   1 H    0.945 --    40 N    0.901
    42   1 H    0.967 --    40 N    0.948
    43   7 N    3.314 --    38 C    1.200    44 H    0.947    45 H    0.944
                            39 O    0.135
    44   1 H    0.966 --    43 N    0.947
    45   1 H    0.961 --    43 N    0.944
    46   6 C    3.960 --    47 O    1.479    48 N    1.252    51 N    1.219
    47   8 O    1.945 --    46 C    1.479    48 N    0.136    51 N    0.131
    48   7 N    3.328 --    46 C    1.252    50 H    0.924    49 H    0.882
                            47 O    0.136
    49   1 H    0.946 --    48 N    0.882
    50   1 H    0.959 --    48 N    0.924
    51   7 N    3.329 --    46 C    1.219    52 H    0.946    53 H    0.938
                            47 O    0.131
    52   1 H    0.964 --    51 N    0.946
    53   1 H    0.958 --    51 N    0.938
 ---------------------------------------------------------------------------

Topologies differ in total number of bonds
Writing topology from bond orders to xtbtopo.mol

molecular dipole:
                 x           y           z       tot (Debye)
 q only:        0.051      -1.028      -0.253
   full:       -0.024      -0.575       0.021       1.463
molecular quadrupole (traceless):
                xx          xy          yy          xz          yz          zz
 q only:       24.200      -0.918       5.903      -3.360      -4.325     -30.103
  q+dip:       32.011       0.162       5.420      -4.145      -8.548     -37.431
   full:       31.814       0.031       4.926      -4.129      -8.241     -36.740

           -------------------------------------------------
          |               Frequency Printout                |
           -------------------------------------------------
 projected vibrational frequencies (cm⁻¹)
eigval :       -0.00    -0.00    -0.00    -0.00     0.00     0.00
eigval :       21.77    27.71    32.49    37.61    41.83    43.86
eigval :       50.26    52.95    56.84    66.07    70.45    73.45
eigval :       80.42    95.31   100.24   104.40   106.88   117.03
eigval :      124.92   130.45   139.16   156.19   169.20   171.29
eigval :      197.74   205.31   236.98   253.21   288.03   290.51
eigval :      292.08   297.75   323.66   327.19   354.18   378.91
eigval :      382.50   428.92   429.66   442.01   454.06   463.34
eigval :      468.44   469.62   470.35   475.58   479.62   482.34
eigval :      485.55   491.66   498.33   539.51   545.23   547.04
eigval :      554.45   576.30   619.98   658.55   669.75   675.80
eigval :      676.85   688.80   719.69   747.21   764.44   785.83
eigval :      917.74   932.24   958.46   963.63   967.44   984.75
eigval :      992.27  1004.93  1010.19  1016.15  1019.64  1023.31
eigval :     1032.73  1038.49  1042.04  1083.45  1084.49  1086.58
eigval :     1091.15  1100.26  1103.64  1125.03  1161.85  1221.67
eigval :     1244.67  1273.76  1323.07  1326.69  1351.13  1352.96
eigval :     1358.92  1360.84  1373.02  1393.91  1403.80  1410.03
eigval :     1421.40  1437.31  1443.79  1447.67  1454.68  1456.65
eigval :     1457.18  1460.16  1463.84  1469.50  1472.51  1480.79
eigval :     1482.98  1502.62  1504.96  1515.25  1526.07  1643.65
eigval :     1680.52  1700.70  1714.84  2915.31  2982.59  2985.10
eigval :     3002.20  3027.12  3041.16  3042.44  3045.70  3049.04
eigval :     3049.85  3056.35  3061.71  3063.53  3119.52  3222.12
eigval :     3296.40  3344.67  3415.85  3461.91  3495.37  3496.89
eigval :     3497.95  3501.98  3524.55  3533.83  3543.18  3561.65
eigval :     3562.11  3562.26  3567.78
 reduced masses (amu)
   1: 12.53   2: 12.29   3: 12.53   4: 12.56   5: 12.82   6: 12.29   7: 12.39   8: 11.97
   9: 12.38  10: 12.48  11: 11.98  12: 12.27  13: 12.45  14: 12.20  15: 12.54  16: 13.19
  17: 12.21  18: 12.66  19: 12.81  20: 10.01  21: 12.43  22: 12.51  23: 12.66  24: 12.96
  25: 12.92  26: 12.83  27: 12.17  28: 12.25  29: 12.21  30: 12.21  31: 12.77  32: 13.06
  33:  2.90  34:  3.35  35:  7.01  36:  2.62  37:  2.85  38:  3.00  39:  5.31  40:  6.72
  41:  2.60  42:  6.48  43:  3.69  44:  5.27  45:  6.63  46:  2.92  47:  2.83  48:  7.26
  49:  3.69  50:  7.05  51:  6.14  52:  5.59  53:  6.19  54:  2.39  55:  7.76  56:  6.49
  57:  6.31  58: 11.34  59: 10.31  60:  9.25  61: 11.45  62: 11.81  63:  2.95  64:  5.35
  65: 11.10  66: 11.38  67: 12.00  68:  6.94  69:  3.10  70:  1.84  71:  9.21  72:  2.47
  73:  7.83  74:  7.33  75:  4.92  76:  4.92  77:  4.92  78:  4.89  79:  7.45  80:  8.93
  81:  9.29  82:  7.14  83:  6.05  84:  8.72  85:  9.80  86:  4.20  87:  6.90  88:  9.28
  89:  9.16  90:  8.10  91:  8.49  92:  7.43  93:  3.97  94:  7.46  95:  2.71  96:  5.24
  97:  7.52  98:  8.27  99:  5.94 100:  3.38 101:  3.57 102:  5.21 103:  5.73 104:  4.21
 105:  5.42 106:  4.32 107:  2.53 108:  2.55 109:  2.06 110:  2.51 111:  1.61 112:  3.23
 113:  1.65 114:  2.62 115:  2.32 116:  2.84 117:  1.95 118:  1.97 119:  3.02 120:  1.63
 121:  1.84 122:  8.05 123:  8.28 124:  8.73 125:  9.96 126: 12.36 127: 12.58 128: 12.73
 129: 12.69 130:  1.78 131:  1.62 132:  1.76 133:  1.81 134:  1.70 135:  1.76 136:  1.66
 137:  1.43 138:  1.91 139:  1.89 140:  1.91 141:  1.62 142:  1.69 143:  1.84 144:  1.79
 145:  1.78 146:  1.88 147:  1.65 148:  1.90 149:  1.45 150:  1.45 151:  1.45 152:  1.45
 153:  1.90 154:  1.88 155:  2.01 156:  2.18 157:  2.18 158:  2.19 159:  2.19
 IR intensities (km·mol⁻¹)
   1:  2.11   2:  1.02   3:  0.93   4:  1.46   5:  2.12   6:  1.00   7:  0.49   8:  2.08
   9:  1.59  10:  7.21  11:  1.19  12:  0.82  13:  3.97  14:  0.98  15:  3.46  16:  4.09
  17:  2.98  18:  1.03  19:  1.34  20:  4.40  21:  5.37  22:  3.48  23: 22.41  24: 15.26
  25: 20.34  26:  1.76  27: 13.28  28:  7.28  29:  2.40  30: 18.16  31: 22.37  32: 43.91
  33:136.31  34:  8.66  35:  8.03  36: 39.81  37: 11.88  38:210.25  39: 96.79  40: 56.63
  41:  2.50  42: 23.90  43:289.65  44: 44.06  45: 49.66  46:350.73  47:149.98  48:  4.01
  49:  4.85  50:  1.00  51: 15.39  52:  4.90  53:  3.82  54:  1.32  55: 26.35  56: 28.01
  57: 37.10  58: 22.76  59:  6.74  60: 14.79  61: 10.35  62: 53.84  63:115.87  64: 50.56
  65:  2.15  66:  5.96  67: 39.42  68:108.92  69:216.98  70: 50.63  71:  8.03  72:721.64
  73:  2.62  74:  9.64  75:  1.01  76:  4.19  77:  0.44  78: 10.45  79: 27.25  80:  4.30
  81: 16.69  82: 37.96  83: 14.97  84: 11.21  85:  1.10  86:  1.61  87: 12.72  88:  4.40
  89:  3.77  90: 30.82  91:  0.72  92:  1.28  93: 19.65  94: 27.93  95:  8.88  96:  2.69
  97:  1.36  98:  2.96  99:  7.11 100: 18.16 101: 72.49 102:176.73 103:148.95 104: 73.96
 105: 52.07 106:  5.11 107: 22.80 108:  5.49 109: 12.62 110: 10.37 111:  1.62 112:  6.01
 113:  2.09 114:  4.74 115: 10.56 116:  4.80 117:  7.75 118:  3.54 119: 32.21 120: 35.35
 121: 13.36 122:523.14 123:488.49 124:631.14 125:522.17 126:193.12 127:736.63 128:******
 129:801.31 130: 27.02 131: 29.44 132: 37.64 133:  1.44 134: 27.98 135:  3.00 136:  1.35
 137: 28.20 138:  3.01 139:  5.44 140: 19.46 141:  1.27 142:  1.61 143:****** 144:781.59
 145:636.36 146:356.53 147:462.38 148:122.75 149: 35.67 150: 10.81 151: 15.98 152: 21.53
 153: 13.02 154: 15.86 155: 28.94 156: 10.70 157: 15.76 158: 15.26 159: 19.66
 Raman intensities (amu)
Molecule has no symmetry elements
It seems to be the C1 point group
   1:  0.00   2:  0.00   3:  0.00   4:  0.00   5:  0.00   6:  0.00   7:  0.00   8:  0.00
   9:  0.00  10:  0.00  11:  0.00  12:  0.00  13:  0.00  14:  0.00  15:  0.00  16:  0.00
  17:  0.00  18:  0.00  19:  0.00  20:  0.00  21:  0.00  22:  0.00  23:  0.00  24:  0.00
  25:  0.00  26:  0.00  27:  0.00  28:  0.00  29:  0.00  30:  0.00  31:  0.00  32:  0.00
  33:  0.00  34:  0.00  35:  0.00  36:  0.00  37:  0.00  38:  0.00  39:  0.00  40:  0.00
  41:  0.00  42:  0.00  43:  0.00  44:  0.00  45:  0.00  46:  0.00  47:  0.00  48:  0.00
  49:  0.00  50:  0.00  51:  0.00  52:  0.00  53:  0.00  54:  0.00  55:  0.00  56:  0.00
  57:  0.00  58:  0.00  59:  0.00  60:  0.00  61:  0.00  62:  0.00  63:  0.00  64:  0.00
  65:  0.00  66:  0.00  67:  0.00  68:  0.00  69:  0.00  70:  0.00  71:  0.00  72:  0.00
  73:  0.00  74:  0.00  75:  0.00  76:  0.00  77:  0.00  78:  0.00  79:  0.00  80:  0.00
  81:  0.00  82:  0.00  83:  0.00  84:  0.00  85:  0.00  86:  0.00  87:  0.00  88:  0.00
  89:  0.00  90:  0.00  91:  0.00  92:  0.00  93:  0.00  94:  0.00  95:  0.00  96:  0.00
  97:  0.00  98:  0.00  99:  0.00 100:  0.00 101:  0.00 102:  0.00 103:  0.00 104:  0.00
 105:  0.00 106:  0.00 107:  0.00 108:  0.00 109:  0.00 110:  0.00 111:  0.00 112:  0.00
 113:  0.00 114:  0.00 115:  0.00 116:  0.00 117:  0.00 118:  0.00 119:  0.00 120:  0.00
 121:  0.00 122:  0.00 123:  0.00 124:  0.00 125:  0.00 126:  0.00 127:  0.00 128:  0.00
 129:  0.00 130:  0.00 131:  0.00 132:  0.00 133:  0.00 134:  0.00 135:  0.00 136:  0.00
 137:  0.00 138:  0.00 139:  0.00 140:  0.00 141:  0.00 142:  0.00 143:  0.00 144:  0.00
 145:  0.00 146:  0.00 147:  0.00 148:  0.00 149:  0.00 150:  0.00 151:  0.00 152:  0.00
 153:  0.00 154:  0.00 155:  0.00 156:  0.00 157:  0.00 158:  0.00 159:  0.00
 output can be read by thermo (or use thermo option).
 writing <g98.out> molden fake output.
 recommended (thermochemical) frequency scaling factor: 1.0
           -------------------------------------------------
          |             Thermodynamic Functions             |
           -------------------------------------------------

c1  symmetry found (for desy threshold:  0.10E+00) used in thermo

          ...................................................
          :                      SETUP                      :
          :.................................................:
          :  # frequencies                         153      :
          :  # imaginary freq.                       0      :
          :  linear?                             false      :
          :  only rotor calc.                    false      :
          :  symmetry                               c1      :
          :  rotational number                       1      :
          :  scaling factor                  1.0000000      :
          :  rotor cutoff                   50.0000000 cm⁻¹ :
          :  imag. cutoff                  -20.0000000 cm⁻¹ :
          :.................................................:

    mode    ω/cm⁻¹     T·S(HO)/kcal·mol⁻¹    T·S(FR)/kcal·mol⁻¹   T·S(vib)
   ------------------------------------------------------------------------
       1     21.77    -1.92781 (  3.47%)    -1.30280 ( 96.53%)    -1.32448
       2     27.71    -1.78509 (  8.62%)    -1.23138 ( 91.38%)    -1.27909
       3     32.49    -1.69081 ( 15.14%)    -1.18417 ( 84.86%)    -1.26086
       4     37.61    -1.60437 ( 24.25%)    -1.14085 ( 75.75%)    -1.25327
       5     41.83    -1.54160 ( 32.88%)    -1.10937 ( 67.12%)    -1.25147
       6     43.86    -1.51361 ( 37.19%)    -1.09533 ( 62.81%)    -1.25088
       7     50.26    -1.43328 ( 50.51%)    -1.05500 ( 49.49%)    -1.24608
       8     52.95    -1.40247 ( 55.71%)    -1.03951 ( 44.29%)    -1.24173
       9     56.84    -1.36079 ( 62.54%)    -1.01856 ( 37.46%)    -1.23260
      10     66.07    -1.27228 ( 75.30%)    -0.97398 ( 24.70%)    -1.19859
      11     70.45    -1.23459 ( 79.76%)    -0.95496 ( 20.24%)    -1.17799
      12     73.45    -1.21010 ( 82.32%)    -0.94260 ( 17.68%)    -1.16281
      13     80.42    -1.15699 ( 87.00%)    -0.91574 ( 13.00%)    -1.12563
      14     95.31    -1.05785 ( 92.96%)    -0.86543 (  7.04%)    -1.04430
      15    100.24    -1.02849 ( 94.17%)    -0.85047 (  5.83%)    -1.01811
      16    104.40    -1.00490 ( 95.00%)    -0.83844 (  5.00%)    -0.99658
      17    106.88    -0.99126 ( 95.43%)    -0.83147 (  4.57%)    -0.98396
      18    117.03    -0.93884 ( 96.78%)    -0.80461 (  3.22%)    -0.93451
      19    124.92    -0.90125 ( 97.50%)    -0.78528 (  2.50%)    -0.89835
      20    130.45    -0.87638 ( 97.89%)    -0.77245 (  2.11%)    -0.87419
      21    139.16    -0.83943 ( 98.36%)    -0.75331 (  1.64%)    -0.83801
      22    156.19    -0.77383 ( 98.96%)    -0.71911 (  1.04%)    -0.77326
      23    169.20    -0.72879 ( 99.24%)    -0.69541 (  0.76%)    -0.72853
      24    171.29    -0.72189 ( 99.28%)    -0.69176 (  0.72%)    -0.72167
      25    197.74    -0.64221 ( 99.59%)    -0.64922 (  0.41%)    -0.64224
      26    205.31    -0.62162 ( 99.65%)    -0.63809 (  0.35%)    -0.62168
      27    236.98    -0.54425 ( 99.80%)    -0.59560 (  0.20%)    -0.54435
      28    253.21    -0.50927 ( 99.85%)    -0.57598 (  0.15%)    -0.50937
      29    288.03    -0.44290 ( 99.91%)    -0.53781 (  0.09%)    -0.44299
      30    290.51    -0.43857 ( 99.91%)    -0.53527 (  0.09%)    -0.43865
      31    292.08    -0.43586 ( 99.91%)    -0.53367 (  0.09%)    -0.43594
      32    297.75    -0.42621 ( 99.92%)    -0.52798 (  0.08%)    -0.42630
   ------------------------------------------------------------------------

   temp. (K)  partition function   enthalpy   heat capacity  entropy
                                   cal/mol     cal/K/mol   cal/K/mol   J/K/mol
 298.15  VIB  0.353E+16            19174.329    105.359    124.792
         ROT  0.108E+08              888.752      2.981     35.156
         INT  0.379E+23            20063.082    108.340    159.948
         TR   0.618E+28             1481.254      4.968     43.384
         TOT                       21544.3354   113.3080   203.3324   850.7426

       T/K    H(0)-H(T)+PV         H(T)/Eh          T*S/Eh         G(T)/Eh
   ------------------------------------------------------------------------
    298.15    0.343331E-01    0.474270E+00    0.966098E-01    0.377660E+00
   ------------------------------------------------------------------------

         :::::::::::::::::::::::::::::::::::::::::::::::::::::
         ::                  THERMODYNAMIC                  ::
         :::::::::::::::::::::::::::::::::::::::::::::::::::::
         :: total free energy         -80.562969178695 Eh   ::
         ::.................................................::
         :: total energy              -80.940629167146 Eh   ::
         :: zero point energy           0.439936668758 Eh   ::
         :: G(RRHO) w/o ZPVE           -0.062276680306 Eh   ::
         :: G(RRHO) contrib.            0.377659988451 Eh   ::
         :::::::::::::::::::::::::::::::::::::::::::::::::::::

           -------------------------------------------------
          | TOTAL ENERGY              -80.940629167146 Eh   |
          | TOTAL ENTHALPY            -80.466359414496 Eh   |
          | TOTAL FREE ENERGY         -80.562969178695 Eh   |
          | GRADIENT NORM               0.000165174698 Eh/α |
          | HOMO-LUMO GAP               5.785070832358 eV   |
           -------------------------------------------------

------------------------------------------------------------------------
 * finished run on 2024/01/10 at 15:33:14.083     
------------------------------------------------------------------------
 total:
 * wall-time:     0 d,  0 h,  0 min, 14.471 sec
 *  cpu-time:     0 d,  0 h,  0 min, 14.435 sec
 * ratio c/w:     0.997 speedup
 SCF:
 * wall-time:     0 d,  0 h,  0 min,  0.071 sec
 *  cpu-time:     0 d,  0 h,  0 min,  0.059 sec
 * ratio c/w:     0.825 speedup
 analytical hessian:
 * wall-time:     0 d,  0 h,  0 min, 14.372 sec
 *  cpu-time:     0 d,  0 h,  0 min, 14.348 sec
 * ratio c/w:     0.998 speedup

