      -----------------------------------------------------------      
     |                   =====================                   |     
     |                           x T B                           |     
     |                   =====================                   |     
     |                         S. Grimme                         |     
     |          Mulliken Center for Theoretical Chemistry        |     
     |                    University of Bonn                     |     
      -----------------------------------------------------------      

   * xtb version 6.6.1 (unknown-commit) compiled by '@Linux' on 12/27/2023

   xtb is free software: you can redistribute it and/or modify it under
   the terms of the GNU Lesser General Public License as published by
   the Free Software Foundation, either version 3 of the License, or
   (at your option) any later version.
   
   xtb is distributed in the hope that it will be useful,
   but WITHOUT ANY WARRANTY; without even the implied warranty of
   MERCHANTABILITY or FITNESS FOR A PARTICULAR PURPOSE.  See the
   GNU Lesser General Public License for more details.
   
   Cite this work as:
   * C. Bannwarth, E. Caldeweyher, S. Ehlert, A. Hansen, P. Pracht,
     J. Seibert, S. Spicher, S. Grimme, WIREs Comput. Mol. Sci., 2020, 11,
     e01493. DOI: 10.1002/wcms.1493
   
   for GFN2-xTB:
   * C. Bannwarth, S. Ehlert and S. Grimme., J. Chem. Theory Comput., 2019,
     15, 1652-1671. DOI: 10.1021/acs.jctc.8b01176
   for GFN1-xTB:
   * S. Grimme, C. Bannwarth, P. Shushkov, J. Chem. Theory Comput., 2017,
     13, 1989-2009. DOI: 10.1021/acs.jctc.7b00118
   for GFN0-xTB:
   * P. Pracht, E. Caldeweyher, S. Ehlert, S. Grimme, ChemRxiv, 2019, preprint.
     DOI: 10.26434/chemrxiv.8326202.v1
   for GFN-FF:
   * S. Spicher and S. Grimme, Angew. Chem. Int. Ed., 2020, 59, 15665-15673.
     DOI: 10.1002/anie.202004239
   
   for ALPB and GBSA implicit solvation:
   * S. Ehlert, M. Stahn, S. Spicher, S. Grimme, J. Chem. Theory Comput.,
     2021, 17, 4250-4261. DOI: 10.1021/acs.jctc.1c00471
   
   for DFT-D4:
   * E. Caldeweyher, C. Bannwarth and S. Grimme, J. Chem. Phys., 2017,
     147, 034112. DOI: 10.1063/1.4993215
   * E. Caldeweyher, S. Ehlert, A. Hansen, H. Neugebauer, S. Spicher,
     C. Bannwarth and S. Grimme, J. Chem. Phys., 2019, 150, 154122.
     DOI: 10.1063/1.5090222
   * E. Caldeweyher, J.-M. Mewes, S. Ehlert and S. Grimme, Phys. Chem. Chem. Phys.
     2020, 22, 8499-8512. DOI: 10.1039/D0CP00502A
   
   for sTDA-xTB:
   * S. Grimme and C. Bannwarth, J. Chem. Phys., 2016, 145, 054103.
     DOI: 10.1063/1.4959605
   
   in the mass-spec context:
   * V. Asgeirsson, C. Bauer and S. Grimme, Chem. Sci., 2017, 8, 4879.
     DOI: 10.1039/c7sc00601b
   * J. Koopman and S. Grimme, ACS Omega 2019, 4, 12, 15120-15133.
     DOI: 10.1021/acsomega.9b02011
   
   for metadynamics refer to:
   * S. Grimme, J. Chem. Theory Comput., 2019, 155, 2847-2862
     DOI: 10.1021/acs.jctc.9b00143
   
   for SPH calculations refer to:
   * S. Spicher and S. Grimme, J. Chem. Theory Comput., 2021, 17, 1701-1714
     DOI: 10.1021/acs.jctc.0c01306
   
   with help from (in alphabetical order)
   P. Atkinson, C. Bannwarth, F. Bohle, G. Brandenburg, E. Caldeweyher
   M. Checinski, S. Dohm, S. Ehlert, S. Ehrlich, I. Gerasimov, C. Hölzer
   A. Katbashev, J. Koopman, C. Lavigne, S. Lehtola, F. März, M. Müller,
   F. Musil, H. Neugebauer, J. Pisarek, C. Plett, P. Pracht, F. Pultar,
   J. Seibert, P. Shushkov, S. Spicher, M. Stahn, M. Steiner, T. Strunk,
   J. Stückrath, T. Rose, and J. Unsleber
   
 * started run on 2024/01/10 at 15:37:24.383     

           -------------------------------------------------
          |                Calculation Setup                |
           -------------------------------------------------

          program call               : xtb struc.xyz --gfn2 --hess
          hostname                   : swaroop
          coordinate file            : struc.xyz
          omp threads                :                     1

   ID    Z sym.   atoms
    1    8 O      1, 23, 31, 39, 47
    2    6 C      2, 5, 9, 13, 17, 22, 30, 38, 46
    3    1 H      3, 4, 6, 7, 10-12, 14-16, 18-21, 25, 26, 28, 29, 33, 34,
                  36, 37, 41, 42, 44, 45, 49, 50, 52, 53
    4    7 N      8, 24, 27, 32, 35, 40, 43, 48, 51

molecular fragmentation (1/2 indicates fragments):
11111111111111111111122222222222222222222222222222222
# atoms in fragment 1/2:    21    32
 fragment masses (1/2) :      104.17      240.22
CMA distance (Bohr)    :   3.971
constraining FC (au)   :  0.0500

           -------------------------------------------------
          |                 G F N 2 - x T B                 |
           -------------------------------------------------

        Reference                      10.1021/acs.jctc.8b01176
      * Hamiltonian:
        H0-scaling (s, p, d)           1.850000    2.230000    2.230000
        zeta-weighting                 0.500000
      * Dispersion:
        s8                             2.700000
        a1                             0.520000
        a2                             5.000000
        s9                             5.000000
      * Repulsion:
        kExp                           1.500000    1.000000
        rExp                           1.000000
      * Coulomb:
        alpha                          2.000000
        third order                    shell-resolved
        anisotropic                    true
        a3                             3.000000
        a5                             4.000000
        cn-shift                       1.200000
        cn-exp                         4.000000
        max-rad                        5.000000


          ...................................................
          :                      SETUP                      :
          :.................................................:
          :  # basis functions                 122          :
          :  # atomic orbitals                 122          :
          :  # shells                           76          :
          :  # electrons                       140          :
          :  max. iterations                   250          :
          :  Hamiltonian                  GFN2-xTB          :
          :  restarted?                      false          :
          :  GBSA solvation                  false          :
          :  PC potential                    false          :
          :  electronic temp.          300.0000000     K    :
          :  accuracy                    1.0000000          :
          :  -> integral cutoff          0.2500000E+02      :
          :  -> integral neglect         0.1000000E-07      :
          :  -> SCF convergence          0.1000000E-05 Eh   :
          :  -> wf. convergence          0.1000000E-03 e    :
          :  Broyden damping             0.4000000          :
          ...................................................

 iter      E             dE          RMSdq      gap      omega  full diag
   1    -81.5506738 -0.815507E+02  0.433E+00    5.17       0.0  T
   2    -81.8405748 -0.289901E+00  0.236E+00    5.98       1.0  T
   3    -81.8463271 -0.575228E-02  0.116E+00    5.65       1.0  T
   4    -81.8476973 -0.137028E-02  0.241E-01    5.69       1.0  T
   5    -81.8486094 -0.912022E-03  0.914E-02    5.61       1.0  T
   6    -81.8486335 -0.241150E-04  0.260E-02    5.62       1.0  T
   7    -81.8486379 -0.446402E-05  0.759E-03    5.62       1.8  T
   8    -81.8486382 -0.278074E-06  0.277E-03    5.62       5.0  T
   9    -81.8486382 -0.254691E-07  0.107E-03    5.62      12.9  T
  10    -81.8486382 -0.597595E-08  0.169E-04    5.62      81.5  T
  11    -81.8486382 -0.227288E-09  0.821E-05    5.62     167.3  T

   *** convergence criteria satisfied after 11 iterations ***

         #    Occupation            Energy/Eh            Energy/eV
      -------------------------------------------------------------
         1        2.0000           -0.7956721             -21.6513
       ...           ...                  ...                  ...
        64        2.0000           -0.4926210             -13.4049
        65        2.0000           -0.4909354             -13.3590
        66        2.0000           -0.4891440             -13.3103
        67        2.0000           -0.4887796             -13.3004
        68        2.0000           -0.4860735             -13.2267
        69        2.0000           -0.4840915             -13.1728
        70        2.0000           -0.4801495             -13.0655 (HOMO)
        71                         -0.2737067              -7.4479 (LUMO)
        72                         -0.2651633              -7.2155
        73                         -0.2587848              -7.0419
        74                         -0.2537160              -6.9040
        75                         -0.1479783              -4.0267
       ...                                ...                  ...
       122                          0.5647662              15.3681
      -------------------------------------------------------------
                  HL-Gap            0.2064428 Eh            5.6176 eV
             Fermi-level           -0.3769281 Eh          -10.2567 eV

 SCC (total)                   0 d,  0 h,  0 min,  0.099 sec
 SCC setup                      ...        0 min,  0.000 sec (  0.297%)
 Dispersion                     ...        0 min,  0.001 sec (  0.609%)
 classical contributions        ...        0 min,  0.000 sec (  0.188%)
 integral evaluation            ...        0 min,  0.008 sec (  8.118%)
 iterations                     ...        0 min,  0.062 sec ( 62.324%)
 molecular gradient             ...        0 min,  0.028 sec ( 28.211%)
 printout                       ...        0 min,  0.000 sec (  0.240%)

         :::::::::::::::::::::::::::::::::::::::::::::::::::::
         ::                     SUMMARY                     ::
         :::::::::::::::::::::::::::::::::::::::::::::::::::::
         :: total energy             -80.934159518214 Eh    ::
         :: gradient norm              0.000063151087 Eh/a0 ::
         :: HOMO-LUMO gap              5.617593956310 eV    ::
         ::.................................................::
         :: SCC energy               -81.848638249959 Eh    ::
         :: -> isotropic ES            0.292637305813 Eh    ::
         :: -> anisotropic ES         -0.028617752729 Eh    ::
         :: -> anisotropic XC          0.020193031448 Eh    ::
         :: -> dispersion             -0.043798639592 Eh    ::
         :: repulsion energy           0.913213255148 Eh    ::
         :: add. restraining           0.000000000000 Eh    ::
         :: total charge               1.000000000000 e     ::
         :::::::::::::::::::::::::::::::::::::::::::::::::::::

           ------------------------------------------------- 
          |                Numerical Hessian                |
           ------------------------------------------------- 
step length          :   0.00500
SCC accuracy         :   0.30000
Hessian scale factor :   1.00000
frozen atoms in %    :   0.00000    0
RMS gradient         :   0.00006
estimated CPU  time      0.24 min
estimated wall time      0.25 min

writing file <hessian>.

 projected vibrational frequencies (cm⁻¹)
eigval :       -0.00    -0.00    -0.00     0.00     0.00     0.00
eigval :        9.22    15.90    21.79    24.31    27.89    37.14
eigval :       41.58    43.84    48.22    55.68    60.58    65.63
eigval :       70.53    76.87    88.57    97.71    99.78   109.15
eigval :      113.37   123.46   135.72   140.06   155.45   180.62
eigval :      203.52   208.84   212.12   227.80   262.36   276.50
eigval :      294.28   296.92   316.99   324.33   346.69   359.27
eigval :      380.53   389.45   426.00   429.82   436.69   459.47
eigval :      460.29   460.66   461.35   467.53   469.48   477.78
eigval :      481.68   485.90   493.54   529.05   542.47   546.88
eigval :      554.09   562.75   565.23   666.74   671.38   673.98
eigval :      676.28   722.29   741.37   766.09   769.40   790.96
eigval :      907.74   929.78   949.02   963.04   965.68   968.53
eigval :     1001.88  1004.15  1009.89  1011.97  1015.05  1022.83
eigval :     1029.44  1035.10  1039.47  1080.09  1081.89  1088.45
eigval :     1092.31  1093.20  1110.27  1130.65  1167.44  1226.41
eigval :     1251.33  1282.48  1313.43  1327.61  1351.66  1354.43
eigval :     1357.21  1362.43  1380.96  1393.88  1405.50  1407.34
eigval :     1431.07  1437.31  1440.08  1445.49  1446.50  1451.03
eigval :     1453.29  1456.55  1460.17  1469.09  1474.71  1481.43
eigval :     1484.57  1500.94  1507.44  1510.63  1514.75  1661.37
eigval :     1693.66  1700.61  1718.48  2867.07  2980.24  2995.06
eigval :     3004.69  3031.39  3033.37  3041.31  3042.79  3045.46
eigval :     3048.95  3051.00  3055.87  3068.59  3153.30  3156.52
eigval :     3218.41  3268.32  3486.70  3497.36  3500.14  3500.67
eigval :     3504.26  3525.34  3534.79  3538.75  3556.82  3562.86
eigval :     3565.83  3567.62  3570.06
           -------------------------------------------------
          |                Property Printout                |
           -------------------------------------------------

    * Orbital Energies and Occupations

         #    Occupation            Energy/Eh            Energy/eV
      -------------------------------------------------------------
         1        2.0000           -0.7956724             -21.6513
       ...           ...                  ...                  ...
        58        2.0000           -0.5123372             -13.9414
        59        2.0000           -0.5076454             -13.8137
        60        2.0000           -0.5025974             -13.6764
        61        2.0000           -0.5020984             -13.6628
        62        2.0000           -0.4982228             -13.5573
        63        2.0000           -0.4949887             -13.4693
        64        2.0000           -0.4926212             -13.4049
        65        2.0000           -0.4909360             -13.3590
        66        2.0000           -0.4891436             -13.3103
        67        2.0000           -0.4887799             -13.3004
        68        2.0000           -0.4860738             -13.2267
        69        2.0000           -0.4840921             -13.1728
        70        2.0000           -0.4801504             -13.0656 (HOMO)
        71                         -0.2737071              -7.4479 (LUMO)
        72                         -0.2651637              -7.2155
        73                         -0.2587850              -7.0419
        74                         -0.2537161              -6.9040
        75                         -0.1479783              -4.0267
        76                         -0.1061943              -2.8897
        77                         -0.0973286              -2.6484
        78                         -0.0800460              -2.1782
        79                         -0.0738080              -2.0084
        80                         -0.0711209              -1.9353
        81                         -0.0642956              -1.7496
       ...                                ...                  ...
       122                          0.5647660              15.3681
      -------------------------------------------------------------
                  HL-Gap            0.2064434 Eh            5.6176 eV
             Fermi-level           -0.3769288 Eh          -10.2568 eV

     #   Z          covCN         q      C6AA      α(0)
     1   8 O        1.653    -0.480    22.473     6.399
     2   6 C        3.672     0.064    19.739     6.367
     3   1 H        0.924     0.088     1.899     2.155
     4   1 H        0.923     0.040     2.446     2.446
     5   6 C        3.762    -0.058    21.656     6.634
     6   1 H        0.924     0.104     1.751     2.069
     7   1 H        0.924     0.071     2.078     2.254
     8   7 N        3.624     0.157    18.595     6.405
     9   6 C        3.736    -0.108    22.653     6.792
    10   1 H        0.925     0.079     1.987     2.204
    11   1 H        0.925     0.131     1.527     1.933
    12   1 H        0.925     0.088     1.903     2.157
    13   6 C        3.726    -0.120    22.916     6.835
    14   1 H        0.925     0.122     1.601     1.979
    15   1 H        0.925     0.124     1.582     1.967
    16   1 H        0.925     0.074     2.044     2.236
    17   6 C        3.728    -0.120    22.900     6.832
    18   1 H        0.925     0.111     1.687     2.031
    19   1 H        0.925     0.099     1.794     2.094
    20   1 H        0.925     0.118     1.627     1.995
    21   1 H        0.802     0.327     0.644     1.261
    22   6 C        2.675     0.341    21.210     7.536
    23   8 O        0.861    -0.531    24.488     6.635
    24   7 N        2.644    -0.306    27.870     7.841
    25   1 H        0.860     0.244     0.906     1.491
    26   1 H        0.861     0.178     1.226     1.734
    27   7 N        2.645    -0.289    27.455     7.782
    28   1 H        0.861     0.183     1.196     1.713
    29   1 H        0.860     0.201     1.102     1.644
    30   6 C        2.675     0.344    21.165     7.528
    31   8 O        0.860    -0.533    24.518     6.639
    32   7 N        2.645    -0.296    27.632     7.807
    33   1 H        0.860     0.195     1.134     1.668
    34   1 H        0.861     0.180     1.215     1.727
    35   7 N        2.644    -0.313    28.060     7.867
    36   1 H        0.860     0.174     1.248     1.750
    37   1 H        0.860     0.237     0.937     1.517
    38   6 C        2.675     0.344    21.155     7.526
    39   8 O        0.860    -0.523    24.292     6.608
    40   7 N        2.646    -0.290    27.481     7.786
    41   1 H        0.860     0.214     1.037     1.596
    42   1 H        0.861     0.188     1.168     1.693
    43   7 N        2.646    -0.281    27.267     7.755
    44   1 H        0.861     0.189     1.162     1.688
    45   1 H        0.860     0.205     1.081     1.629
    46   6 C        2.675     0.341    21.210     7.536
    47   8 O        0.860    -0.520    24.220     6.598
    48   7 N        2.644    -0.306    27.870     7.841
    49   1 H        0.859     0.248     0.891     1.479
    50   1 H        0.861     0.183     1.199     1.716
    51   7 N        2.645    -0.293    27.558     7.797
    52   1 H        0.861     0.183     1.197     1.714
    53   1 H        0.860     0.200     1.108     1.649

 Mol. C6AA /au·bohr⁶  :      21789.336331
 Mol. C8AA /au·bohr⁸  :     454210.066762
 Mol. α(0) /au        :        220.534610


Wiberg/Mayer (AO) data.
largest (>0.10) Wiberg bond orders for each atom

 ---------------------------------------------------------------------------
     #   Z sym  total        # sym  WBO       # sym  WBO       # sym  WBO
 ---------------------------------------------------------------------------
     1   8 O    1.936 --     2 C    1.018    21 H    0.816
     2   6 C    3.959 --     1 O    1.018     5 C    0.995     4 H    0.961
                             3 H    0.956
     3   1 H    0.992 --     2 C    0.956
     4   1 H    0.998 --     2 C    0.961
     5   6 C    3.941 --     2 C    0.995     7 H    0.970     6 H    0.957
                             8 N    0.938
     6   1 H    0.989 --     5 C    0.957
     7   1 H    0.995 --     5 C    0.970
     8   7 N    3.822 --     9 C    0.959    13 C    0.954    17 C    0.952
                             5 C    0.938
     9   6 C    3.928 --    10 H    0.979    12 H    0.977    11 H    0.960
                             8 N    0.959
    10   1 H    0.994 --     9 C    0.979
    11   1 H    0.983 --     9 C    0.960
    12   1 H    0.992 --     9 C    0.977
    13   6 C    3.914 --    16 H    0.980    15 H    0.959     8 N    0.954
                            14 H    0.952
    14   1 H    0.985 --    13 C    0.952
    15   1 H    0.985 --    13 C    0.959
    16   1 H    0.995 --    13 C    0.980
    17   6 C    3.912 --    19 H    0.973    18 H    0.964    20 H    0.961
                             8 N    0.952
    18   1 H    0.988 --    17 C    0.964
    19   1 H    0.990 --    17 C    0.973
    20   1 H    0.986 --    17 C    0.961
    21   1 H    0.893 --     1 O    0.816
    22   6 C    3.960 --    23 O    1.480    24 N    1.260    27 N    1.209
    23   8 O    1.905 --    22 C    1.480    24 N    0.144    27 N    0.129
    24   7 N    3.347 --    22 C    1.260    26 H    0.949    25 H    0.871
                            23 O    0.144
    25   1 H    0.940 --    24 N    0.871
    26   1 H    0.968 --    24 N    0.949
    27   7 N    3.323 --    22 C    1.209    28 H    0.948    29 H    0.943
                            23 O    0.129
    28   1 H    0.966 --    27 N    0.948
    29   1 H    0.959 --    27 N    0.943
    30   6 C    3.959 --    31 O    1.524    35 N    1.233    32 N    1.193
    31   8 O    1.886 --    30 C    1.524    35 N    0.146    32 N    0.137
    32   7 N    3.308 --    30 C    1.193    34 H    0.949    33 H    0.945
                            31 O    0.137
    33   1 H    0.962 --    32 N    0.945
    34   1 H    0.967 --    32 N    0.949
    35   7 N    3.321 --    30 C    1.233    36 H    0.950    37 H    0.880
                            31 O    0.146
    36   1 H    0.969 --    35 N    0.950
    37   1 H    0.944 --    35 N    0.880
    38   6 C    3.960 --    39 O    1.508    40 N    1.223    43 N    1.223
    39   8 O    1.913 --    38 C    1.508    40 N    0.141    43 N    0.138
    40   7 N    3.334 --    38 C    1.223    42 H    0.946    41 H    0.933
                            39 O    0.141
    41   1 H    0.954 --    40 N    0.933
    42   1 H    0.965 --    40 N    0.946
    43   7 N    3.338 --    38 C    1.223    44 H    0.946    45 H    0.941
                            39 O    0.138
    44   1 H    0.964 --    43 N    0.946
    45   1 H    0.958 --    43 N    0.941
    46   6 C    3.960 --    47 O    1.482    48 N    1.264    51 N    1.203
    47   8 O    1.933 --    46 C    1.482    48 N    0.143    51 N    0.129
    48   7 N    3.353 --    46 C    1.264    50 H    0.946    49 H    0.860
                            47 O    0.143
    49   1 H    0.938 --    48 N    0.860
    50   1 H    0.966 --    48 N    0.946
    51   7 N    3.316 --    46 C    1.203    52 H    0.948    53 H    0.943
                            47 O    0.129
    52   1 H    0.966 --    51 N    0.948
    53   1 H    0.960 --    51 N    0.943
 ---------------------------------------------------------------------------

Topologies differ in total number of bonds
Writing topology from bond orders to xtbtopo.mol

molecular dipole:
                 x           y           z       tot (Debye)
 q only:       -1.014      -0.598      -0.214
   full:       -1.010      -0.511       0.083       2.885
molecular quadrupole (traceless):
                xx          xy          yy          xz          yz          zz
 q only:        9.744      28.062      15.193      -9.045     -11.368     -24.936
  q+dip:       12.575      33.167      20.314      -9.630     -13.378     -32.889
   full:       12.591      33.204      19.401      -9.980     -13.066     -31.992

           -------------------------------------------------
          |               Frequency Printout                |
           -------------------------------------------------
 projected vibrational frequencies (cm⁻¹)
eigval :       -0.00    -0.00    -0.00     0.00     0.00     0.00
eigval :        9.22    15.90    21.79    24.31    27.89    37.14
eigval :       41.58    43.84    48.22    55.68    60.58    65.63
eigval :       70.53    76.87    88.57    97.71    99.78   109.15
eigval :      113.37   123.46   135.72   140.06   155.45   180.62
eigval :      203.52   208.84   212.12   227.80   262.36   276.50
eigval :      294.28   296.92   316.99   324.33   346.69   359.27
eigval :      380.53   389.45   426.00   429.82   436.69   459.47
eigval :      460.29   460.66   461.35   467.53   469.48   477.78
eigval :      481.68   485.90   493.54   529.05   542.47   546.88
eigval :      554.09   562.75   565.23   666.74   671.38   673.98
eigval :      676.28   722.29   741.37   766.09   769.40   790.96
eigval :      907.74   929.78   949.02   963.04   965.68   968.53
eigval :     1001.88  1004.15  1009.89  1011.97  1015.05  1022.83
eigval :     1029.44  1035.10  1039.47  1080.09  1081.89  1088.45
eigval :     1092.31  1093.20  1110.27  1130.65  1167.44  1226.41
eigval :     1251.33  1282.48  1313.43  1327.61  1351.66  1354.43
eigval :     1357.21  1362.43  1380.96  1393.88  1405.50  1407.34
eigval :     1431.07  1437.31  1440.08  1445.49  1446.50  1451.03
eigval :     1453.29  1456.55  1460.17  1469.09  1474.71  1481.43
eigval :     1484.57  1500.94  1507.44  1510.63  1514.75  1661.37
eigval :     1693.66  1700.61  1718.48  2867.07  2980.24  2995.06
eigval :     3004.69  3031.39  3033.37  3041.31  3042.79  3045.46
eigval :     3048.95  3051.00  3055.87  3068.59  3153.30  3156.52
eigval :     3218.41  3268.32  3486.70  3497.36  3500.14  3500.67
eigval :     3504.26  3525.34  3534.79  3538.75  3556.82  3562.86
eigval :     3565.83  3567.62  3570.06
 reduced masses (amu)
   1: 12.44   2: 12.61   3: 12.64   4: 12.81   5: 12.63   6: 12.46   7: 12.45   8: 12.20
   9: 12.32  10: 12.19  11: 12.48  12: 12.35  13: 12.47  14: 12.52  15: 13.22  16: 12.68
  17: 12.25  18: 12.84  19: 12.67  20: 12.56  21: 12.18  22: 12.33  23: 12.79  24: 12.34
  25: 12.90  26: 13.09  27:  9.83  28:  3.45  29: 12.37  30: 13.24  31: 12.81  32: 11.32
  33: 12.21  34:  2.21  35:  2.72  36:  2.60  37:  6.52  38:  4.26  39:  6.45  40:  3.92
  41:  3.12  42:  3.91  43:  6.43  44:  3.60  45:  3.20  46:  2.79  47:  8.70  48:  1.70
  49:  7.00  50:  7.80  51:  8.42  52:  3.76  53:  4.82  54:  5.65  55:  2.43  56:  8.05
  57:  8.53  58:  1.41  59: 11.29  60: 11.58  61: 11.62  62: 10.90  63:  9.69  64: 10.31
  65: 11.57  66: 11.52  67: 11.95  68:  3.03  69:  1.80  70:  5.44  71:  6.02  72:  1.85
  73:  7.67  74:  7.67  75:  5.24  76:  4.77  77:  4.96  78:  4.92  79:  7.62  80:  8.50
  81:  9.34  82:  8.13  83:  9.17  84:  9.29  85:  6.86  86:  4.87  87:  3.64  88:  9.84
  89:  9.14  90:  8.69  91:  8.36  92:  7.76  93:  4.11  94:  7.65  95:  2.86  96:  5.62
  97:  7.00  98:  8.02  99:  6.34 100:  2.94 101:  4.63 102:  4.79 103:  4.60 104:  5.77
 105:  4.51 106:  3.25 107:  2.55 108:  2.58 109:  2.39 110:  1.68 111:  2.23 112:  3.16
 113:  2.64 114:  2.11 115:  3.16 116:  2.02 117:  2.71 118:  1.88 119:  1.60 120:  1.69
 121:  1.82 122:  7.99 123:  9.18 124:  9.26 125:  9.52 126: 12.37 127: 12.72 128: 12.74
 129: 12.74 130:  1.74 131:  1.73 132:  1.73 133:  1.74 134:  1.72 135:  1.73 136:  1.60
 137:  1.68 138:  1.75 139:  1.84 140:  1.88 141:  1.65 142:  1.75 143:  1.82 144:  1.91
 145:  1.79 146:  1.77 147:  1.47 148:  1.45 149:  1.45 150:  1.45 151:  1.45 152:  1.91
 153:  1.89 154:  1.91 155:  2.17 156:  2.18 157:  2.18 158:  2.18 159:  2.19
 IR intensities (km·mol⁻¹)
   1:  1.78   2:  0.50   3:  2.23   4:  2.01   5:  0.75   6:  1.48   7:  0.68   8:  2.12
   9:  0.16  10:  0.42  11:  3.10  12:  2.69  13:  2.75  14:  1.09  15:  1.32  16: 10.18
  17:  0.66  18:  4.25  19:  1.24  20:  3.50  21:  8.53  22:  6.55  23:  3.97  24:  5.70
  25: 13.51  26: 14.24  27:  8.03  28: 11.72  29:  5.51  30: 15.45  31: 39.18  32: 26.49
  33: 18.99  34:132.78  35:116.01  36:  4.43  37: 53.79  38:126.35  39: 61.98  40:456.51
  41:  5.08  42:  2.96  43:  0.46  44: 99.25  45:254.86  46:431.65  47:  2.93  48:  1.87
  49: 10.23  50:  3.52  51: 18.76  52: 16.59  53:  1.47  54:  8.49  55: 10.86  56: 20.60
  57: 54.73  58: 43.76  59: 17.38  60: 29.27  61:  7.75  62: 19.10  63: 50.88  64:  6.30
  65: 12.94  66: 37.31  67: 36.54  68: 30.33  69:220.29  70:136.91  71: 72.85  72:351.18
  73:  2.29  74:  7.82  75:  5.10  76: 10.43  77:  0.22  78:  0.58  79: 16.07  80:  4.73
  81: 11.67  82: 31.35  83:  5.59  84:  0.99  85: 14.99  86: 11.99  87:  2.42  88:  0.74
  89:  1.39  90:  1.08  91:  5.48  92: 20.78  93: 14.28  94: 48.17  95: 13.88  96:  8.17
  97:  1.82  98: 18.58  99:  1.18 100:  4.50 101:190.73 102: 63.90 103: 29.72 104:117.32
 105:  4.71 106: 69.76 107: 43.03 108: 30.43 109:  6.69 110:  0.28 111:  1.53 112:  7.69
 113:  1.84 114: 14.00 115:  6.34 116:  7.02 117:  9.25 118: 23.58 119: 27.33 120: 16.21
 121: 29.42 122:538.67 123:547.58 124:582.59 125:347.29 126:219.32 127:960.76 128:******
 129:808.47 130: 45.26 131:  2.28 132: 13.29 133:  5.67 134:  3.82 135:  2.33 136: 25.54
 137: 19.82 138: 15.18 139: 26.84 140: 17.58 141: 29.00 142: 15.16 143:200.29 144:821.79
 145:****** 146:632.76 147: 57.49 148: 16.35 149: 16.84 150: 21.01 151: 19.11 152: 12.31
 153: 18.66 154: 14.51 155: 22.24 156:  8.82 157: 13.59 158: 15.67 159: 19.44
 Raman intensities (amu)
Molecule has no symmetry elements
It seems to be the C1 point group
   1:  0.00   2:  0.00   3:  0.00   4:  0.00   5:  0.00   6:  0.00   7:  0.00   8:  0.00
   9:  0.00  10:  0.00  11:  0.00  12:  0.00  13:  0.00  14:  0.00  15:  0.00  16:  0.00
  17:  0.00  18:  0.00  19:  0.00  20:  0.00  21:  0.00  22:  0.00  23:  0.00  24:  0.00
  25:  0.00  26:  0.00  27:  0.00  28:  0.00  29:  0.00  30:  0.00  31:  0.00  32:  0.00
  33:  0.00  34:  0.00  35:  0.00  36:  0.00  37:  0.00  38:  0.00  39:  0.00  40:  0.00
  41:  0.00  42:  0.00  43:  0.00  44:  0.00  45:  0.00  46:  0.00  47:  0.00  48:  0.00
  49:  0.00  50:  0.00  51:  0.00  52:  0.00  53:  0.00  54:  0.00  55:  0.00  56:  0.00
  57:  0.00  58:  0.00  59:  0.00  60:  0.00  61:  0.00  62:  0.00  63:  0.00  64:  0.00
  65:  0.00  66:  0.00  67:  0.00  68:  0.00  69:  0.00  70:  0.00  71:  0.00  72:  0.00
  73:  0.00  74:  0.00  75:  0.00  76:  0.00  77:  0.00  78:  0.00  79:  0.00  80:  0.00
  81:  0.00  82:  0.00  83:  0.00  84:  0.00  85:  0.00  86:  0.00  87:  0.00  88:  0.00
  89:  0.00  90:  0.00  91:  0.00  92:  0.00  93:  0.00  94:  0.00  95:  0.00  96:  0.00
  97:  0.00  98:  0.00  99:  0.00 100:  0.00 101:  0.00 102:  0.00 103:  0.00 104:  0.00
 105:  0.00 106:  0.00 107:  0.00 108:  0.00 109:  0.00 110:  0.00 111:  0.00 112:  0.00
 113:  0.00 114:  0.00 115:  0.00 116:  0.00 117:  0.00 118:  0.00 119:  0.00 120:  0.00
 121:  0.00 122:  0.00 123:  0.00 124:  0.00 125:  0.00 126:  0.00 127:  0.00 128:  0.00
 129:  0.00 130:  0.00 131:  0.00 132:  0.00 133:  0.00 134:  0.00 135:  0.00 136:  0.00
 137:  0.00 138:  0.00 139:  0.00 140:  0.00 141:  0.00 142:  0.00 143:  0.00 144:  0.00
 145:  0.00 146:  0.00 147:  0.00 148:  0.00 149:  0.00 150:  0.00 151:  0.00 152:  0.00
 153:  0.00 154:  0.00 155:  0.00 156:  0.00 157:  0.00 158:  0.00 159:  0.00
 output can be read by thermo (or use thermo option).
 writing <g98.out> molden fake output.
 recommended (thermochemical) frequency scaling factor: 1.0
           -------------------------------------------------
          |             Thermodynamic Functions             |
           -------------------------------------------------

c1  symmetry found (for desy threshold:  0.10E+00) used in thermo

          ...................................................
          :                      SETUP                      :
          :.................................................:
          :  # frequencies                         153      :
          :  # imaginary freq.                       0      :
          :  linear?                             false      :
          :  only rotor calc.                    false      :
          :  symmetry                               c1      :
          :  rotational number                       1      :
          :  scaling factor                  1.0000000      :
          :  rotor cutoff                   50.0000000 cm⁻¹ :
          :  imag. cutoff                  -20.0000000 cm⁻¹ :
          :.................................................:

    mode    ω/cm⁻¹     T·S(HO)/kcal·mol⁻¹    T·S(FR)/kcal·mol⁻¹   T·S(vib)
   ------------------------------------------------------------------------
       1      9.22    -2.43630 (  0.12%)    -1.55709 ( 99.88%)    -1.55811
       2     15.90    -2.11377 (  1.01%)    -1.39584 ( 98.99%)    -1.40311
       3     21.79    -1.92725 (  3.48%)    -1.30254 ( 96.52%)    -1.32429
       4     24.31    -1.86251 (  5.29%)    -1.27014 ( 94.71%)    -1.30148
       5     27.89    -1.78110 (  8.83%)    -1.22939 ( 91.17%)    -1.27811
       6     37.14    -1.61178 ( 23.34%)    -1.14457 ( 76.66%)    -1.25363
       7     41.58    -1.54512 ( 32.35%)    -1.11115 ( 67.65%)    -1.25155
       8     43.84    -1.51388 ( 37.15%)    -1.09547 ( 62.85%)    -1.25089
       9     48.22    -1.45772 ( 46.37%)    -1.06728 ( 53.63%)    -1.24834
      10     55.68    -1.37292 ( 60.59%)    -1.02466 ( 39.41%)    -1.23568
      11     60.58    -1.32322 ( 68.31%)    -0.99965 ( 31.69%)    -1.22067
      12     65.63    -1.27620 ( 74.80%)    -0.97596 ( 25.20%)    -1.20054
      13     70.53    -1.23392 ( 79.83%)    -0.95463 ( 20.17%)    -1.17760
      14     76.87    -1.18341 ( 84.82%)    -0.92911 ( 15.18%)    -1.14481
      15     88.57    -1.10056 ( 90.78%)    -0.88714 (  9.22%)    -1.08089
      16     97.71    -1.04335 ( 93.58%)    -0.85805 (  6.42%)    -1.03146
      17     99.78    -1.03118 ( 94.07%)    -0.85185 (  5.93%)    -1.02054
      18    109.15    -0.97913 ( 95.78%)    -0.82527 (  4.22%)    -0.97264
      19    113.37    -0.95715 ( 96.35%)    -0.81401 (  3.65%)    -0.95194
      20    123.46    -0.90803 ( 97.38%)    -0.78878 (  2.62%)    -0.90490
      21    135.72    -0.85372 ( 98.19%)    -0.76073 (  1.81%)    -0.85204
      22    140.06    -0.83575 ( 98.40%)    -0.75141 (  1.60%)    -0.83440
      23    155.45    -0.77653 ( 98.94%)    -0.72052 (  1.06%)    -0.77593
      24    180.62    -0.69229 ( 99.42%)    -0.67605 (  0.58%)    -0.69220
      25    203.52    -0.62643 ( 99.64%)    -0.64070 (  0.36%)    -0.62648
      26    208.84    -0.61233 ( 99.67%)    -0.63305 (  0.33%)    -0.61240
      27    212.12    -0.60386 ( 99.69%)    -0.62844 (  0.31%)    -0.60394
      28    227.80    -0.56535 ( 99.77%)    -0.60731 (  0.23%)    -0.56545
      29    262.36    -0.49075 ( 99.87%)    -0.56546 (  0.13%)    -0.49085
      30    276.50    -0.46369 ( 99.89%)    -0.54991 (  0.11%)    -0.46378
      31    294.28    -0.43209 ( 99.92%)    -0.53145 (  0.08%)    -0.43217
      32    296.92    -0.42761 ( 99.92%)    -0.52881 (  0.08%)    -0.42769
   ------------------------------------------------------------------------

   temp. (K)  partition function   enthalpy   heat capacity  entropy
                                   cal/mol     cal/K/mol   cal/K/mol   J/K/mol
 298.15  VIB  0.342E+18            19646.017    104.155    129.860
         ROT  0.147E+08              888.752      2.981     35.775
         INT  0.502E+25            20534.770    107.136    165.635
         TR   0.618E+28             1481.254      4.968     43.384
         TOT                       22016.0236   112.1040   209.0194   874.5371

       T/K    H(0)-H(T)+PV         H(T)/Eh          T*S/Eh         G(T)/Eh
   ------------------------------------------------------------------------
    298.15    0.350848E-01    0.473762E+00    0.993119E-01    0.374450E+00
   ------------------------------------------------------------------------

         :::::::::::::::::::::::::::::::::::::::::::::::::::::
         ::                  THERMODYNAMIC                  ::
         :::::::::::::::::::::::::::::::::::::::::::::::::::::
         :: total free energy         -80.559709294156 Eh   ::
         ::.................................................::
         :: total energy              -80.934159518241 Eh   ::
         :: zero point energy           0.438677307363 Eh   ::
         :: G(RRHO) w/o ZPVE           -0.064227083277 Eh   ::
         :: G(RRHO) contrib.            0.374450224086 Eh   ::
         :::::::::::::::::::::::::::::::::::::::::::::::::::::

           -------------------------------------------------
          | TOTAL ENERGY              -80.934159518241 Eh   |
          | TOTAL ENTHALPY            -80.460397444093 Eh   |
          | TOTAL FREE ENERGY         -80.559709294156 Eh   |
          | GRADIENT NORM               0.000063410089 Eh/α |
          | HOMO-LUMO GAP               5.617609651338 eV   |
           -------------------------------------------------

------------------------------------------------------------------------
 * finished run on 2024/01/10 at 15:37:39.152     
------------------------------------------------------------------------
 total:
 * wall-time:     0 d,  0 h,  0 min, 14.769 sec
 *  cpu-time:     0 d,  0 h,  0 min, 14.586 sec
 * ratio c/w:     0.988 speedup
 SCF:
 * wall-time:     0 d,  0 h,  0 min,  0.099 sec
 *  cpu-time:     0 d,  0 h,  0 min,  0.059 sec
 * ratio c/w:     0.600 speedup
 analytical hessian:
 * wall-time:     0 d,  0 h,  0 min, 14.643 sec
 *  cpu-time:     0 d,  0 h,  0 min, 14.500 sec
 * ratio c/w:     0.990 speedup

