      -----------------------------------------------------------      
     |                   =====================                   |     
     |                           x T B                           |     
     |                   =====================                   |     
     |                         S. Grimme                         |     
     |          Mulliken Center for Theoretical Chemistry        |     
     |                    University of Bonn                     |     
      -----------------------------------------------------------      

   * xtb version 6.6.1 (unknown-commit) compiled by '@Linux' on 12/27/2023

   xtb is free software: you can redistribute it and/or modify it under
   the terms of the GNU Lesser General Public License as published by
   the Free Software Foundation, either version 3 of the License, or
   (at your option) any later version.
   
   xtb is distributed in the hope that it will be useful,
   but WITHOUT ANY WARRANTY; without even the implied warranty of
   MERCHANTABILITY or FITNESS FOR A PARTICULAR PURPOSE.  See the
   GNU Lesser General Public License for more details.
   
   Cite this work as:
   * C. Bannwarth, E. Caldeweyher, S. Ehlert, A. Hansen, P. Pracht,
     J. Seibert, S. Spicher, S. Grimme, WIREs Comput. Mol. Sci., 2020, 11,
     e01493. DOI: 10.1002/wcms.1493
   
   for GFN2-xTB:
   * C. Bannwarth, S. Ehlert and S. Grimme., J. Chem. Theory Comput., 2019,
     15, 1652-1671. DOI: 10.1021/acs.jctc.8b01176
   for GFN1-xTB:
   * S. Grimme, C. Bannwarth, P. Shushkov, J. Chem. Theory Comput., 2017,
     13, 1989-2009. DOI: 10.1021/acs.jctc.7b00118
   for GFN0-xTB:
   * P. Pracht, E. Caldeweyher, S. Ehlert, S. Grimme, ChemRxiv, 2019, preprint.
     DOI: 10.26434/chemrxiv.8326202.v1
   for GFN-FF:
   * S. Spicher and S. Grimme, Angew. Chem. Int. Ed., 2020, 59, 15665-15673.
     DOI: 10.1002/anie.202004239
   
   for ALPB and GBSA implicit solvation:
   * S. Ehlert, M. Stahn, S. Spicher, S. Grimme, J. Chem. Theory Comput.,
     2021, 17, 4250-4261. DOI: 10.1021/acs.jctc.1c00471
   
   for DFT-D4:
   * E. Caldeweyher, C. Bannwarth and S. Grimme, J. Chem. Phys., 2017,
     147, 034112. DOI: 10.1063/1.4993215
   * E. Caldeweyher, S. Ehlert, A. Hansen, H. Neugebauer, S. Spicher,
     C. Bannwarth and S. Grimme, J. Chem. Phys., 2019, 150, 154122.
     DOI: 10.1063/1.5090222
   * E. Caldeweyher, J.-M. Mewes, S. Ehlert and S. Grimme, Phys. Chem. Chem. Phys.
     2020, 22, 8499-8512. DOI: 10.1039/D0CP00502A
   
   for sTDA-xTB:
   * S. Grimme and C. Bannwarth, J. Chem. Phys., 2016, 145, 054103.
     DOI: 10.1063/1.4959605
   
   in the mass-spec context:
   * V. Asgeirsson, C. Bauer and S. Grimme, Chem. Sci., 2017, 8, 4879.
     DOI: 10.1039/c7sc00601b
   * J. Koopman and S. Grimme, ACS Omega 2019, 4, 12, 15120-15133.
     DOI: 10.1021/acsomega.9b02011
   
   for metadynamics refer to:
   * S. Grimme, J. Chem. Theory Comput., 2019, 155, 2847-2862
     DOI: 10.1021/acs.jctc.9b00143
   
   for SPH calculations refer to:
   * S. Spicher and S. Grimme, J. Chem. Theory Comput., 2021, 17, 1701-1714
     DOI: 10.1021/acs.jctc.0c01306
   
   with help from (in alphabetical order)
   P. Atkinson, C. Bannwarth, F. Bohle, G. Brandenburg, E. Caldeweyher
   M. Checinski, S. Dohm, S. Ehlert, S. Ehrlich, I. Gerasimov, C. Hölzer
   A. Katbashev, J. Koopman, C. Lavigne, S. Lehtola, F. März, M. Müller,
   F. Musil, H. Neugebauer, J. Pisarek, C. Plett, P. Pracht, F. Pultar,
   J. Seibert, P. Shushkov, S. Spicher, M. Stahn, M. Steiner, T. Strunk,
   J. Stückrath, T. Rose, and J. Unsleber
   
 * started run on 2024/01/10 at 18:26:39.595     

           -------------------------------------------------
          |                Calculation Setup                |
           -------------------------------------------------

          program call               : xtb struc.xyz --gfn2 --hess
          hostname                   : swaroop
          coordinate file            : struc.xyz
          omp threads                :                     1

   ID    Z sym.   atoms
    1    8 O      1, 23, 31, 39, 47
    2    6 C      2, 5, 9, 13, 17, 22, 30, 38, 46
    3    1 H      3, 4, 6, 7, 10-12, 14-16, 18-21, 25, 26, 28, 29, 33, 34,
                  36, 37, 41, 42, 44, 45, 49, 50, 52, 53
    4    7 N      8, 24, 27, 32, 35, 40, 43, 48, 51

molecular fragmentation (1/2 indicates fragments):
11111111111111111111122222222222222222222222222222222
# atoms in fragment 1/2:    21    32
 fragment masses (1/2) :      104.17      240.22
CMA distance (Bohr)    :   5.984
constraining FC (au)   :  0.0500

           -------------------------------------------------
          |                 G F N 2 - x T B                 |
           -------------------------------------------------

        Reference                      10.1021/acs.jctc.8b01176
      * Hamiltonian:
        H0-scaling (s, p, d)           1.850000    2.230000    2.230000
        zeta-weighting                 0.500000
      * Dispersion:
        s8                             2.700000
        a1                             0.520000
        a2                             5.000000
        s9                             5.000000
      * Repulsion:
        kExp                           1.500000    1.000000
        rExp                           1.000000
      * Coulomb:
        alpha                          2.000000
        third order                    shell-resolved
        anisotropic                    true
        a3                             3.000000
        a5                             4.000000
        cn-shift                       1.200000
        cn-exp                         4.000000
        max-rad                        5.000000


          ...................................................
          :                      SETUP                      :
          :.................................................:
          :  # basis functions                 122          :
          :  # atomic orbitals                 122          :
          :  # shells                           76          :
          :  # electrons                       140          :
          :  max. iterations                   250          :
          :  Hamiltonian                  GFN2-xTB          :
          :  restarted?                      false          :
          :  GBSA solvation                  false          :
          :  PC potential                    false          :
          :  electronic temp.          300.0000000     K    :
          :  accuracy                    1.0000000          :
          :  -> integral cutoff          0.2500000E+02      :
          :  -> integral neglect         0.1000000E-07      :
          :  -> SCF convergence          0.1000000E-05 Eh   :
          :  -> wf. convergence          0.1000000E-03 e    :
          :  Broyden damping             0.4000000          :
          ...................................................

 iter      E             dE          RMSdq      gap      omega  full diag
   1    -81.5507940 -0.815508E+02  0.433E+00    5.02       0.0  T
   2    -81.8385194 -0.287725E+00  0.234E+00    6.02       1.0  T
   3    -81.8441343 -0.561490E-02  0.115E+00    5.69       1.0  T
   4    -81.8454432 -0.130887E-02  0.239E-01    5.73       1.0  T
   5    -81.8463376 -0.894429E-03  0.922E-02    5.65       1.0  T
   6    -81.8463633 -0.256879E-04  0.281E-02    5.68       1.0  T
   7    -81.8463681 -0.474864E-05  0.773E-03    5.68       1.8  T
   8    -81.8463684 -0.290920E-06  0.286E-03    5.67       4.8  T
   9    -81.8463684 -0.276809E-07  0.107E-03    5.67      12.9  T
  10    -81.8463684 -0.768478E-08  0.215E-04    5.67      64.0  T
  11    -81.8463684 -0.620417E-09  0.898E-05    5.67     152.9  T

   *** convergence criteria satisfied after 11 iterations ***

         #    Occupation            Energy/Eh            Energy/eV
      -------------------------------------------------------------
         1        2.0000           -0.7932921             -21.5866
       ...           ...                  ...                  ...
        64        2.0000           -0.4983124             -13.5598
        65        2.0000           -0.4981431             -13.5552
        66        2.0000           -0.4938980             -13.4396
        67        2.0000           -0.4921806             -13.3929
        68        2.0000           -0.4896922             -13.3252
        69        2.0000           -0.4853636             -13.2074
        70        2.0000           -0.4812717             -13.0961 (HOMO)
        71                         -0.2728454              -7.4245 (LUMO)
        72                         -0.2684776              -7.3056
        73                         -0.2637824              -7.1779
        74                         -0.2586591              -7.0385
        75                         -0.1501359              -4.0854
       ...                                ...                  ...
       122                          0.5528050              15.0426
      -------------------------------------------------------------
                  HL-Gap            0.2084263 Eh            5.6716 eV
             Fermi-level           -0.3770585 Eh          -10.2603 eV

 SCC (total)                   0 d,  0 h,  0 min,  0.098 sec
 SCC setup                      ...        0 min,  0.000 sec (  0.290%)
 Dispersion                     ...        0 min,  0.001 sec (  0.595%)
 classical contributions        ...        0 min,  0.000 sec (  0.184%)
 integral evaluation            ...        0 min,  0.008 sec (  7.719%)
 iterations                     ...        0 min,  0.062 sec ( 63.139%)
 molecular gradient             ...        0 min,  0.027 sec ( 27.813%)
 printout                       ...        0 min,  0.000 sec (  0.248%)

         :::::::::::::::::::::::::::::::::::::::::::::::::::::
         ::                     SUMMARY                     ::
         :::::::::::::::::::::::::::::::::::::::::::::::::::::
         :: total energy             -80.934903866745 Eh    ::
         :: gradient norm              0.000156504785 Eh/a0 ::
         :: HOMO-LUMO gap              5.671568734518 eV    ::
         ::.................................................::
         :: SCC energy               -81.846368393887 Eh    ::
         :: -> isotropic ES            0.292104244213 Eh    ::
         :: -> anisotropic ES         -0.028662658114 Eh    ::
         :: -> anisotropic XC          0.020802767349 Eh    ::
         :: -> dispersion             -0.043575769990 Eh    ::
         :: repulsion energy           0.910549826516 Eh    ::
         :: add. restraining           0.000000000000 Eh    ::
         :: total charge               1.000000000000 e     ::
         :::::::::::::::::::::::::::::::::::::::::::::::::::::

           ------------------------------------------------- 
          |                Numerical Hessian                |
           ------------------------------------------------- 
step length          :   0.00500
SCC accuracy         :   0.30000
Hessian scale factor :   1.00000
frozen atoms in %    :   0.00000    0
RMS gradient         :   0.00016
estimated CPU  time      0.24 min
estimated wall time      0.24 min

writing file <hessian>.

 projected vibrational frequencies (cm⁻¹)
eigval :       -0.00    -0.00    -0.00     0.00     0.00     0.00
eigval :       -5.79     7.63    16.78    18.75    27.35    36.66
eigval :       43.96    48.06    52.98    54.87    61.15    63.44
eigval :       77.83    78.89    86.50    99.29   105.72   108.51
eigval :      116.41   125.15   138.11   147.06   169.81   184.32
eigval :      187.25   193.12   258.53   276.74   308.06   313.06
eigval :      315.80   327.67   331.81   353.39   358.73   374.24
eigval :      382.20   404.30   428.47   443.72   444.08   454.91
eigval :      455.67   465.47   466.80   468.71   476.14   487.22
eigval :      492.31   502.88   505.93   507.69   531.32   545.29
eigval :      556.18   569.08   583.69   644.76   669.42   673.24
eigval :      674.26   688.37   752.53   769.04   796.27   837.46
eigval :      894.47   929.90   946.57   972.08   976.18   978.35
eigval :      995.45  1004.54  1011.29  1013.93  1020.43  1029.89
eigval :     1033.48  1041.17  1043.43  1081.53  1084.72  1090.76
eigval :     1099.54  1106.30  1108.08  1135.70  1173.51  1229.52
eigval :     1251.46  1284.32  1310.65  1338.84  1346.70  1352.07
eigval :     1353.35  1365.16  1378.30  1392.78  1400.64  1404.82
eigval :     1429.30  1436.43  1441.04  1442.31  1449.64  1452.96
eigval :     1456.33  1457.05  1470.07  1472.12  1473.97  1478.70
eigval :     1493.24  1497.57  1500.38  1506.46  1535.30  1642.31
eigval :     1692.60  1716.18  1726.95  2881.28  2961.97  2973.85
eigval :     2991.74  3028.76  3039.66  3040.91  3042.82  3044.52
eigval :     3047.34  3052.59  3055.57  3058.49  3062.34  3094.82
eigval :     3317.08  3364.57  3472.56  3478.86  3489.40  3494.66
eigval :     3499.93  3504.10  3533.86  3536.87  3552.57  3553.30
eigval :     3561.27  3564.12  3569.66
           -------------------------------------------------
          |                Property Printout                |
           -------------------------------------------------

    * Orbital Energies and Occupations

         #    Occupation            Energy/Eh            Energy/eV
      -------------------------------------------------------------
         1        2.0000           -0.7932922             -21.5866
       ...           ...                  ...                  ...
        58        2.0000           -0.5108117             -13.8999
        59        2.0000           -0.5062802             -13.7766
        60        2.0000           -0.5051233             -13.7451
        61        2.0000           -0.5029349             -13.6856
        62        2.0000           -0.5003286             -13.6146
        63        2.0000           -0.4997129             -13.5979
        64        2.0000           -0.4983126             -13.5598
        65        2.0000           -0.4981436             -13.5552
        66        2.0000           -0.4938988             -13.4397
        67        2.0000           -0.4921811             -13.3929
        68        2.0000           -0.4896928             -13.3252
        69        2.0000           -0.4853644             -13.2074
        70        2.0000           -0.4812726             -13.0961 (HOMO)
        71                         -0.2728454              -7.4245 (LUMO)
        72                         -0.2684781              -7.3057
        73                         -0.2637827              -7.1779
        74                         -0.2586595              -7.0385
        75                         -0.1501358              -4.0854
        76                         -0.1021546              -2.7798
        77                         -0.0983991              -2.6776
        78                         -0.0795730              -2.1653
        79                         -0.0744688              -2.0264
        80                         -0.0715962              -1.9482
        81                         -0.0698424              -1.9005
       ...                                ...                  ...
       122                          0.5528048              15.0426
      -------------------------------------------------------------
                  HL-Gap            0.2084272 Eh            5.6716 eV
             Fermi-level           -0.3770590 Eh          -10.2603 eV

     #   Z          covCN         q      C6AA      α(0)
     1   8 O        1.653    -0.481    22.484     6.401
     2   6 C        3.673     0.077    19.530     6.333
     3   1 H        0.924     0.052     2.292     2.367
     4   1 H        0.923     0.039     2.461     2.453
     5   6 C        3.763    -0.064    21.772     6.651
     6   1 H        0.924     0.122     1.600     1.978
     7   1 H        0.924     0.070     2.086     2.259
     8   7 N        3.623     0.160    18.550     6.397
     9   6 C        3.731    -0.120    22.893     6.830
    10   1 H        0.925     0.115     1.651     2.009
    11   1 H        0.925     0.108     1.711     2.046
    12   1 H        0.925     0.108     1.716     2.049
    13   6 C        3.736    -0.118    22.852     6.822
    14   1 H        0.925     0.122     1.596     1.976
    15   1 H        0.925     0.076     2.026     2.226
    16   1 H        0.925     0.120     1.617     1.988
    17   6 C        3.722    -0.107    22.657     6.798
    18   1 H        0.925     0.078     2.004     2.214
    19   1 H        0.925     0.095     1.828     2.114
    20   1 H        0.925     0.124     1.585     1.969
    21   1 H        0.801     0.335     0.625     1.242
    22   6 C        2.675     0.339    21.237     7.541
    23   8 O        0.861    -0.545    24.798     6.677
    24   7 N        2.644    -0.289    27.460     7.783
    25   1 H        0.860     0.214     1.039     1.597
    26   1 H        0.861     0.187     1.173     1.696
    27   7 N        2.643    -0.296    27.624     7.806
    28   1 H        0.861     0.184     1.190     1.709
    29   1 H        0.859     0.257     0.857     1.450
    30   6 C        2.675     0.346    21.128     7.522
    31   8 O        0.860    -0.520    24.238     6.601
    32   7 N        2.646    -0.289    27.459     7.783
    33   1 H        0.860     0.199     1.109     1.650
    34   1 H        0.861     0.186     1.179     1.701
    35   7 N        2.646    -0.289    27.459     7.783
    36   1 H        0.861     0.186     1.179     1.701
    37   1 H        0.860     0.200     1.108     1.649
    38   6 C        2.675     0.343    21.180     7.531
    39   8 O        0.860    -0.510    24.014     6.570
    40   7 N        2.644    -0.307    27.893     7.844
    41   1 H        0.860     0.233     0.954     1.530
    42   1 H        0.861     0.178     1.223     1.732
    43   7 N        2.644    -0.293    27.556     7.796
    44   1 H        0.860     0.183     1.199     1.715
    45   1 H        0.860     0.202     1.097     1.641
    46   6 C        2.675     0.342    21.184     7.532
    47   8 O        0.860    -0.533    24.524     6.640
    48   7 N        2.644    -0.295    27.614     7.805
    49   1 H        0.860     0.195     1.134     1.668
    50   1 H        0.860     0.186     1.183     1.703
    51   7 N        2.643    -0.319    28.206     7.888
    52   1 H        0.860     0.195     1.132     1.667
    53   1 H        0.860     0.221     1.003     1.569

 Mol. C6AA /au·bohr⁶  :      21801.220802
 Mol. C8AA /au·bohr⁸  :     454361.233578
 Mol. α(0) /au        :        220.598822


Wiberg/Mayer (AO) data.
largest (>0.10) Wiberg bond orders for each atom

 ---------------------------------------------------------------------------
     #   Z sym  total        # sym  WBO       # sym  WBO       # sym  WBO
 ---------------------------------------------------------------------------
     1   8 O    1.945 --     2 C    1.025    21 H    0.801
     2   6 C    3.967 --     1 O    1.025     5 C    0.990     3 H    0.968
                             4 H    0.962
     3   1 H    0.997 --     2 C    0.968
     4   1 H    0.998 --     2 C    0.962
     5   6 C    3.936 --     2 C    0.990     7 H    0.970     6 H    0.947
                             8 N    0.939
     6   1 H    0.985 --     5 C    0.947
     7   1 H    0.995 --     5 C    0.970
     8   7 N    3.823 --    17 C    0.962    13 C    0.955     9 C    0.951
                             5 C    0.939
     9   6 C    3.913 --    11 H    0.969    12 H    0.967    10 H    0.966
                             8 N    0.951
    10   1 H    0.987 --     9 C    0.966
    11   1 H    0.988 --     9 C    0.969
    12   1 H    0.988 --     9 C    0.967
    13   6 C    3.918 --    15 H    0.979    14 H    0.963    16 H    0.962
                             8 N    0.955
    14   1 H    0.985 --    13 C    0.963
    15   1 H    0.994 --    13 C    0.979
    16   1 H    0.985 --    13 C    0.962
    17   6 C    3.929 --    18 H    0.979    19 H    0.975     8 N    0.962
                            20 H    0.959
    18   1 H    0.994 --    17 C    0.979
    19   1 H    0.991 --    17 C    0.975
    20   1 H    0.985 --    17 C    0.959
    21   1 H    0.888 --     1 O    0.801
    22   6 C    3.960 --    23 O    1.423    27 N    1.298    24 N    1.228
    23   8 O    1.911 --    22 C    1.423    27 N    0.135    24 N    0.120
    24   7 N    3.336 --    22 C    1.228    26 H    0.946    25 H    0.932
                            23 O    0.120
    25   1 H    0.954 --    24 N    0.932
    26   1 H    0.965 --    24 N    0.946
    27   7 N    3.371 --    22 C    1.298    28 H    0.946    29 H    0.851
                            23 O    0.135
    28   1 H    0.966 --    27 N    0.946
    29   1 H    0.934 --    27 N    0.851
    30   6 C    3.959 --    31 O    1.538    35 N    1.207    32 N    1.207
    31   8 O    1.897 --    30 C    1.538    32 N    0.144    35 N    0.143
    32   7 N    3.322 --    30 C    1.207    34 H    0.947    33 H    0.943
                            31 O    0.144
    33   1 H    0.960 --    32 N    0.943
    34   1 H    0.965 --    32 N    0.947
    35   7 N    3.322 --    30 C    1.207    36 H    0.947    37 H    0.943
                            31 O    0.143
    36   1 H    0.965 --    35 N    0.947
    37   1 H    0.960 --    35 N    0.943
    38   6 C    3.960 --    39 O    1.517    40 N    1.236    43 N    1.200
    39   8 O    1.935 --    38 C    1.517    40 N    0.146    43 N    0.133
    40   7 N    3.330 --    38 C    1.236    42 H    0.949    41 H    0.890
                            39 O    0.146
    41   1 H    0.946 --    40 N    0.890
    42   1 H    0.968 --    40 N    0.949
    43   7 N    3.309 --    38 C    1.200    44 H    0.947    45 H    0.942
                            39 O    0.133
    44   1 H    0.966 --    43 N    0.947
    45   1 H    0.959 --    43 N    0.942
    46   6 C    3.959 --    47 O    1.529    51 N    1.218    48 N    1.202
    47   8 O    1.886 --    46 C    1.529    48 N    0.140    51 N    0.139
    48   7 N    3.316 --    46 C    1.202    50 H    0.947    49 H    0.945
                            47 O    0.140
    49   1 H    0.962 --    48 N    0.945
    50   1 H    0.965 --    48 N    0.947
    51   7 N    3.298 --    46 C    1.218    52 H    0.934    53 H    0.898
                            47 O    0.139
    52   1 H    0.962 --    51 N    0.934
    53   1 H    0.951 --    51 N    0.898
 ---------------------------------------------------------------------------

Topologies differ in total number of bonds
Writing topology from bond orders to xtbtopo.mol

molecular dipole:
                 x           y           z       tot (Debye)
 q only:        0.508       1.334       1.776
   full:        0.107       1.085       1.871       5.505
molecular quadrupole (traceless):
                xx          xy          yy          xz          yz          zz
 q only:      -12.694       5.730      -1.901       1.856      44.337      14.595
  q+dip:      -14.150       5.346      -3.051       1.228      51.909      17.201
   full:      -14.995       5.585      -1.769       0.922      50.975      16.764

           -------------------------------------------------
          |               Frequency Printout                |
           -------------------------------------------------
 projected vibrational frequencies (cm⁻¹)
eigval :       -0.00    -0.00    -0.00     0.00     0.00     0.00
eigval :       -5.79     7.63    16.78    18.75    27.35    36.66
eigval :       43.96    48.06    52.98    54.87    61.15    63.44
eigval :       77.83    78.89    86.50    99.29   105.72   108.51
eigval :      116.41   125.15   138.11   147.06   169.81   184.32
eigval :      187.25   193.12   258.53   276.74   308.06   313.06
eigval :      315.80   327.67   331.81   353.39   358.73   374.24
eigval :      382.20   404.30   428.47   443.72   444.08   454.91
eigval :      455.67   465.47   466.80   468.71   476.14   487.22
eigval :      492.31   502.88   505.93   507.69   531.32   545.29
eigval :      556.18   569.08   583.69   644.76   669.42   673.24
eigval :      674.26   688.37   752.53   769.04   796.27   837.46
eigval :      894.47   929.90   946.57   972.08   976.18   978.35
eigval :      995.45  1004.54  1011.29  1013.93  1020.43  1029.89
eigval :     1033.48  1041.17  1043.43  1081.53  1084.72  1090.76
eigval :     1099.54  1106.30  1108.08  1135.70  1173.51  1229.52
eigval :     1251.46  1284.32  1310.65  1338.84  1346.70  1352.07
eigval :     1353.35  1365.16  1378.30  1392.78  1400.64  1404.82
eigval :     1429.30  1436.43  1441.04  1442.31  1449.64  1452.96
eigval :     1456.33  1457.05  1470.07  1472.12  1473.97  1478.70
eigval :     1493.24  1497.57  1500.38  1506.46  1535.30  1642.31
eigval :     1692.60  1716.18  1726.95  2881.28  2961.97  2973.85
eigval :     2991.74  3028.76  3039.66  3040.91  3042.82  3044.52
eigval :     3047.34  3052.59  3055.57  3058.49  3062.34  3094.82
eigval :     3317.08  3364.57  3472.56  3478.86  3489.40  3494.66
eigval :     3499.93  3504.10  3533.86  3536.87  3552.57  3553.30
eigval :     3561.27  3564.12  3569.66
 reduced masses (amu)
   1: 12.24   2: 12.82   3: 12.45   4: 12.48   5: 12.63   6: 12.80   7: 11.15   8: 12.34
   9: 11.94  10: 12.29  11: 12.09  12: 12.04  13: 12.02  14: 12.50  15: 11.84  16: 12.78
  17: 12.35  18: 12.98  19: 13.05  20: 12.99  21: 12.54  22: 12.52  23: 11.76  24: 12.30
  25: 12.39  26: 12.03  27: 13.03  28: 13.06  29: 12.58  30: 12.56  31:  4.18  32: 10.29
  33: 12.31  34:  5.81  35:  2.82  36:  9.36  37:  3.37  38:  3.85  39:  3.64  40:  2.44
  41:  5.05  42:  4.97  43:  2.47  44:  3.81  45:  8.53  46:  2.81  47:  2.17  48:  7.32
  49:  4.95  50:  7.97  51:  6.85  52:  7.44  53:  8.22  54:  3.21  55:  7.09  56:  3.20
  57:  4.49  58:  1.77  59:  9.68  60: 11.47  61: 11.27  62:  8.52  63: 12.27  64:  5.21
  65: 10.62  66: 11.52  67: 11.98  68:  8.14  69:  4.71  70:  9.30  71:  1.80  72:  1.93
  73:  6.81  74:  8.50  75:  5.24  76:  4.78  77:  5.25  78:  4.66  79:  8.78  80:  7.67
  81:  9.57  82:  7.68  83:  9.76  84:  8.10  85:  9.18  86:  3.21  87:  4.89  88:  9.72
  89:  8.85  90:  8.35  91:  6.48  92:  7.06  93:  4.67  94:  8.40  95:  3.13  96:  4.81
  97:  6.42  98:  7.94  99:  6.66 100:  3.22 101:  4.83 102:  5.78 103:  5.72 104:  5.96
 105:  3.78 106:  3.47 107:  2.56 108:  2.54 109:  2.23 110:  2.02 111:  3.43 112:  1.84
 113:  1.96 114:  2.75 115:  2.11 116:  2.80 117:  3.10 118:  2.52 119:  1.66 120:  1.74
 121:  1.69 122:  8.16 123:  7.07 124:  7.77 125: 10.39 126: 12.17 127: 12.77 128: 12.70
 129: 12.81 130:  1.76 131:  1.69 132:  1.74 133:  1.75 134:  1.71 135:  1.45 136:  1.64
 137:  1.70 138:  1.89 139:  1.94 140:  1.56 141:  1.92 142:  1.85 143:  1.86 144:  1.84
 145:  1.74 146:  1.70 147:  1.93 148:  1.50 149:  1.45 150:  1.45 151:  1.44 152:  1.46
 153:  1.89 154:  1.94 155:  2.14 156:  2.17 157:  2.18 158:  2.19 159:  2.18
 IR intensities (km·mol⁻¹)
   1:  0.31   2:  1.09   3:  2.54   4:  0.54   5:  1.95   6:  2.69   7:  0.09   8:  0.47
   9:  1.11  10:  2.29  11:  1.16  12:  3.11  13:  7.88  14:  1.59  15:  1.32  16: 12.09
  17:  0.58  18:  1.62  19: 12.30  20:  0.50  21:  2.15  22:  2.37  23:  4.67  24: 15.65
  25: 20.22  26:  0.89  27:  0.33  28: 15.29  29: 25.32  30: 30.80  31: 13.75  32:  7.01
  33: 21.36  34:  4.93  35: 43.44  36:  1.95  37:210.15  38: 71.21  39:548.33  40:139.64
  41:  6.04  42:  3.03  43:  0.55  44:150.40  45:  0.16  46:164.57  47:113.34  48:  9.72
  49:  7.73  50:  0.59  51: 50.53  52: 29.32  53: 24.89  54: 30.78  55: 47.63  56: 38.75
  57: 35.56  58: 12.11  59: 35.83  60: 25.58  61: 23.83  62: 13.00  63: 47.17  64: 75.81
  65: 16.26  66: 27.80  67: 36.85  68:172.80  69:259.88  70:  7.34  71:286.33  72:236.73
  73:  2.15  74:  6.22  75:  1.58  76:  5.16  77:  1.77  78: 11.98  79:  0.13  80: 21.90
  81:  2.12  82: 28.39  83:  3.47  84: 14.64  85:  2.30  86:  1.15  87: 30.90  88:  1.71
  89:  4.58  90:  1.37  91: 11.54  92:  4.86  93: 23.38  94: 51.68  95: 17.43  96:  2.24
  97:  4.38  98: 18.01  99:  8.59 100:  5.20 101:  6.40 102:128.26 103: 35.19 104:252.21
 105: 63.19 106: 52.71 107: 50.27 108: 14.19 109:  1.62 110:  0.35 111:  5.44 112:  0.70
 113:  4.97 114:  4.62 115: 11.47 116:  4.60 117: 20.18 118: 34.17 119: 15.45 120: 31.22
 121: 11.62 122:409.69 123:152.37 124:898.86 125:398.25 126:621.51 127:364.90 128:******
 129:178.75 130: 37.39 131: 95.67 132: 21.51 133: 24.14 134: 24.86 135: 28.10 136: 31.53
 137:  1.99 138: 45.34 139:776.96 140: 38.62 141:335.22 142: 44.60 143:211.89 144:763.39
 145:393.11 146:611.46 147: 37.80 148: 34.84 149: 16.05 150: 22.25 151: 39.10 152:  8.22
 153: 14.17 154: 15.97 155: 23.42 156: 19.87 157:  9.91 158: 13.35 159: 11.51
 Raman intensities (amu)
Molecule has no symmetry elements
It seems to be the C1 point group
   1:  0.00   2:  0.00   3:  0.00   4:  0.00   5:  0.00   6:  0.00   7:  0.00   8:  0.00
   9:  0.00  10:  0.00  11:  0.00  12:  0.00  13:  0.00  14:  0.00  15:  0.00  16:  0.00
  17:  0.00  18:  0.00  19:  0.00  20:  0.00  21:  0.00  22:  0.00  23:  0.00  24:  0.00
  25:  0.00  26:  0.00  27:  0.00  28:  0.00  29:  0.00  30:  0.00  31:  0.00  32:  0.00
  33:  0.00  34:  0.00  35:  0.00  36:  0.00  37:  0.00  38:  0.00  39:  0.00  40:  0.00
  41:  0.00  42:  0.00  43:  0.00  44:  0.00  45:  0.00  46:  0.00  47:  0.00  48:  0.00
  49:  0.00  50:  0.00  51:  0.00  52:  0.00  53:  0.00  54:  0.00  55:  0.00  56:  0.00
  57:  0.00  58:  0.00  59:  0.00  60:  0.00  61:  0.00  62:  0.00  63:  0.00  64:  0.00
  65:  0.00  66:  0.00  67:  0.00  68:  0.00  69:  0.00  70:  0.00  71:  0.00  72:  0.00
  73:  0.00  74:  0.00  75:  0.00  76:  0.00  77:  0.00  78:  0.00  79:  0.00  80:  0.00
  81:  0.00  82:  0.00  83:  0.00  84:  0.00  85:  0.00  86:  0.00  87:  0.00  88:  0.00
  89:  0.00  90:  0.00  91:  0.00  92:  0.00  93:  0.00  94:  0.00  95:  0.00  96:  0.00
  97:  0.00  98:  0.00  99:  0.00 100:  0.00 101:  0.00 102:  0.00 103:  0.00 104:  0.00
 105:  0.00 106:  0.00 107:  0.00 108:  0.00 109:  0.00 110:  0.00 111:  0.00 112:  0.00
 113:  0.00 114:  0.00 115:  0.00 116:  0.00 117:  0.00 118:  0.00 119:  0.00 120:  0.00
 121:  0.00 122:  0.00 123:  0.00 124:  0.00 125:  0.00 126:  0.00 127:  0.00 128:  0.00
 129:  0.00 130:  0.00 131:  0.00 132:  0.00 133:  0.00 134:  0.00 135:  0.00 136:  0.00
 137:  0.00 138:  0.00 139:  0.00 140:  0.00 141:  0.00 142:  0.00 143:  0.00 144:  0.00
 145:  0.00 146:  0.00 147:  0.00 148:  0.00 149:  0.00 150:  0.00 151:  0.00 152:  0.00
 153:  0.00 154:  0.00 155:  0.00 156:  0.00 157:  0.00 158:  0.00 159:  0.00
 output can be read by thermo (or use thermo option).
 writing <g98.out> molden fake output.
 recommended (thermochemical) frequency scaling factor: 1.0
           -------------------------------------------------
          |             Thermodynamic Functions             |
           -------------------------------------------------

c1  symmetry found (for desy threshold:  0.10E+00) used in thermo
 inverting freq            1   5.7883701076764433     

          ...................................................
          :                      SETUP                      :
          :.................................................:
          :  # frequencies                         153      :
          :  # imaginary freq.                       0      :
          :  linear?                             false      :
          :  only rotor calc.                    false      :
          :  symmetry                               c1      :
          :  rotational number                       1      :
          :  scaling factor                  1.0000000      :
          :  rotor cutoff                   50.0000000 cm⁻¹ :
          :  imag. cutoff                  -20.0000000 cm⁻¹ :
          :.................................................:

    mode    ω/cm⁻¹     T·S(HO)/kcal·mol⁻¹    T·S(FR)/kcal·mol⁻¹   T·S(vib)
   ------------------------------------------------------------------------
       1      5.79    -2.71238 (  0.02%)    -1.69508 ( 99.98%)    -1.69526
       2      7.63    -2.54908 (  0.05%)    -1.61348 ( 99.95%)    -1.61398
       3     16.78    -2.08179 (  1.25%)    -1.37986 ( 98.75%)    -1.38866
       4     18.75    -2.01626 (  1.94%)    -1.34708 ( 98.06%)    -1.36005
       5     27.35    -1.79265 (  8.22%)    -1.23518 ( 91.78%)    -1.28102
       6     36.66    -1.61957 ( 22.41%)    -1.14848 ( 77.59%)    -1.25407
       7     43.96    -1.51219 ( 37.41%)    -1.09463 ( 62.59%)    -1.25085
       8     48.06    -1.45967 ( 46.05%)    -1.06826 ( 53.95%)    -1.24849
       9     52.98    -1.40214 ( 55.77%)    -1.03936 ( 44.23%)    -1.24168
      10     54.87    -1.38152 ( 59.19%)    -1.02899 ( 40.81%)    -1.23765
      11     61.15    -1.31772 ( 69.11%)    -0.99688 ( 30.89%)    -1.21862
      12     63.44    -1.29611 ( 72.16%)    -0.98600 ( 27.84%)    -1.20977
      13     77.83    -1.17616 ( 85.45%)    -0.92545 ( 14.55%)    -1.13967
      14     78.89    -1.16822 ( 86.11%)    -0.92143 ( 13.89%)    -1.13394
      15     86.50    -1.11439 ( 89.96%)    -0.89416 ( 10.04%)    -1.09228
      16     99.29    -1.03405 ( 93.96%)    -0.85331 (  6.04%)    -1.02313
      17    105.72    -0.99760 ( 95.24%)    -0.83471 (  4.76%)    -0.98984
      18    108.51    -0.98254 ( 95.69%)    -0.82701 (  4.31%)    -0.97583
      19    116.41    -0.94188 ( 96.71%)    -0.80618 (  3.29%)    -0.93742
      20    125.15    -0.90018 ( 97.52%)    -0.78474 (  2.48%)    -0.89731
      21    138.11    -0.84373 ( 98.31%)    -0.75555 (  1.69%)    -0.84224
      22    147.06    -0.80798 ( 98.68%)    -0.73696 (  1.32%)    -0.80704
      23    169.81    -0.72677 ( 99.25%)    -0.69434 (  0.75%)    -0.72652
      24    184.32    -0.68102 ( 99.46%)    -0.67005 (  0.54%)    -0.68096
      25    187.25    -0.67230 ( 99.49%)    -0.66538 (  0.51%)    -0.67226
      26    193.12    -0.65523 ( 99.55%)    -0.65623 (  0.45%)    -0.65523
      27    258.53    -0.49840 ( 99.86%)    -0.56982 (  0.14%)    -0.49850
      28    276.74    -0.46325 ( 99.89%)    -0.54966 (  0.11%)    -0.46334
   ------------------------------------------------------------------------

   temp. (K)  partition function   enthalpy   heat capacity  entropy
                                   cal/mol     cal/K/mol   cal/K/mol   J/K/mol
 298.15  VIB  0.749E+18            19352.276    103.506    129.030
         ROT  0.159E+08              888.752      2.981     35.934
         INT  0.119E+26            20241.028    106.487    164.963
         TR   0.618E+28             1481.254      4.968     43.384
         TOT                       21722.2824   111.4554   208.3477   871.7269

       T/K    H(0)-H(T)+PV         H(T)/Eh          T*S/Eh         G(T)/Eh
   ------------------------------------------------------------------------
    298.15    0.346167E-01    0.474237E+00    0.989927E-01    0.375245E+00
   ------------------------------------------------------------------------

         :::::::::::::::::::::::::::::::::::::::::::::::::::::
         ::                  THERMODYNAMIC                  ::
         :::::::::::::::::::::::::::::::::::::::::::::::::::::
         :: total free energy         -80.559659365376 Eh   ::
         ::.................................................::
         :: total energy              -80.934903866779 Eh   ::
         :: zero point energy           0.439620570963 Eh   ::
         :: G(RRHO) w/o ZPVE           -0.064376069560 Eh   ::
         :: G(RRHO) contrib.            0.375244501403 Eh   ::
         :::::::::::::::::::::::::::::::::::::::::::::::::::::
imag cut-off (cm-1) :    5.00
 found            1  significant imaginary frequency
 writing imag mode distorted coords to xtbhess.xyz
 for further optimization.

           -------------------------------------------------
          | TOTAL ENERGY              -80.934903866779 Eh   |
          | TOTAL ENTHALPY            -80.460666635354 Eh   |
          | TOTAL FREE ENERGY         -80.559659365376 Eh   |
          | GRADIENT NORM               0.000156304752 Eh/α |
          | HOMO-LUMO GAP               5.671592781432 eV   |
           -------------------------------------------------

------------------------------------------------------------------------
 * finished run on 2024/01/10 at 18:26:53.893     
------------------------------------------------------------------------
 total:
 * wall-time:     0 d,  0 h,  0 min, 14.298 sec
 *  cpu-time:     0 d,  0 h,  0 min, 14.230 sec
 * ratio c/w:     0.995 speedup
 SCF:
 * wall-time:     0 d,  0 h,  0 min,  0.099 sec
 *  cpu-time:     0 d,  0 h,  0 min,  0.059 sec
 * ratio c/w:     0.595 speedup
 analytical hessian:
 * wall-time:     0 d,  0 h,  0 min, 14.172 sec
 *  cpu-time:     0 d,  0 h,  0 min, 14.144 sec
 * ratio c/w:     0.998 speedup

