      -----------------------------------------------------------      
     |                   =====================                   |     
     |                           x T B                           |     
     |                   =====================                   |     
     |                         S. Grimme                         |     
     |          Mulliken Center for Theoretical Chemistry        |     
     |                    University of Bonn                     |     
      -----------------------------------------------------------      

   * xtb version 6.6.1 (unknown-commit) compiled by '@Linux' on 12/27/2023

   xtb is free software: you can redistribute it and/or modify it under
   the terms of the GNU Lesser General Public License as published by
   the Free Software Foundation, either version 3 of the License, or
   (at your option) any later version.
   
   xtb is distributed in the hope that it will be useful,
   but WITHOUT ANY WARRANTY; without even the implied warranty of
   MERCHANTABILITY or FITNESS FOR A PARTICULAR PURPOSE.  See the
   GNU Lesser General Public License for more details.
   
   Cite this work as:
   * C. Bannwarth, E. Caldeweyher, S. Ehlert, A. Hansen, P. Pracht,
     J. Seibert, S. Spicher, S. Grimme, WIREs Comput. Mol. Sci., 2020, 11,
     e01493. DOI: 10.1002/wcms.1493
   
   for GFN2-xTB:
   * C. Bannwarth, S. Ehlert and S. Grimme., J. Chem. Theory Comput., 2019,
     15, 1652-1671. DOI: 10.1021/acs.jctc.8b01176
   for GFN1-xTB:
   * S. Grimme, C. Bannwarth, P. Shushkov, J. Chem. Theory Comput., 2017,
     13, 1989-2009. DOI: 10.1021/acs.jctc.7b00118
   for GFN0-xTB:
   * P. Pracht, E. Caldeweyher, S. Ehlert, S. Grimme, ChemRxiv, 2019, preprint.
     DOI: 10.26434/chemrxiv.8326202.v1
   for GFN-FF:
   * S. Spicher and S. Grimme, Angew. Chem. Int. Ed., 2020, 59, 15665-15673.
     DOI: 10.1002/anie.202004239
   
   for ALPB and GBSA implicit solvation:
   * S. Ehlert, M. Stahn, S. Spicher, S. Grimme, J. Chem. Theory Comput.,
     2021, 17, 4250-4261. DOI: 10.1021/acs.jctc.1c00471
   
   for DFT-D4:
   * E. Caldeweyher, C. Bannwarth and S. Grimme, J. Chem. Phys., 2017,
     147, 034112. DOI: 10.1063/1.4993215
   * E. Caldeweyher, S. Ehlert, A. Hansen, H. Neugebauer, S. Spicher,
     C. Bannwarth and S. Grimme, J. Chem. Phys., 2019, 150, 154122.
     DOI: 10.1063/1.5090222
   * E. Caldeweyher, J.-M. Mewes, S. Ehlert and S. Grimme, Phys. Chem. Chem. Phys.
     2020, 22, 8499-8512. DOI: 10.1039/D0CP00502A
   
   for sTDA-xTB:
   * S. Grimme and C. Bannwarth, J. Chem. Phys., 2016, 145, 054103.
     DOI: 10.1063/1.4959605
   
   in the mass-spec context:
   * V. Asgeirsson, C. Bauer and S. Grimme, Chem. Sci., 2017, 8, 4879.
     DOI: 10.1039/c7sc00601b
   * J. Koopman and S. Grimme, ACS Omega 2019, 4, 12, 15120-15133.
     DOI: 10.1021/acsomega.9b02011
   
   for metadynamics refer to:
   * S. Grimme, J. Chem. Theory Comput., 2019, 155, 2847-2862
     DOI: 10.1021/acs.jctc.9b00143
   
   for SPH calculations refer to:
   * S. Spicher and S. Grimme, J. Chem. Theory Comput., 2021, 17, 1701-1714
     DOI: 10.1021/acs.jctc.0c01306
   
   with help from (in alphabetical order)
   P. Atkinson, C. Bannwarth, F. Bohle, G. Brandenburg, E. Caldeweyher
   M. Checinski, S. Dohm, S. Ehlert, S. Ehrlich, I. Gerasimov, C. Hölzer
   A. Katbashev, J. Koopman, C. Lavigne, S. Lehtola, F. März, M. Müller,
   F. Musil, H. Neugebauer, J. Pisarek, C. Plett, P. Pracht, F. Pultar,
   J. Seibert, P. Shushkov, S. Spicher, M. Stahn, M. Steiner, T. Strunk,
   J. Stückrath, T. Rose, and J. Unsleber
   
 * started run on 2024/01/10 at 15:33:43.719     

           -------------------------------------------------
          |                Calculation Setup                |
           -------------------------------------------------

          program call               : xtb struc.xyz --gfn2 --hess
          hostname                   : swaroop
          coordinate file            : struc.xyz
          omp threads                :                     1

   ID    Z sym.   atoms
    1    8 O      1, 23, 31, 39, 47
    2    6 C      2, 5, 9, 13, 17, 22, 30, 38, 46
    3    1 H      3, 4, 6, 7, 10-12, 14-16, 18-21, 25, 26, 28, 29, 33, 34,
                  36, 37, 41, 42, 44, 45, 49, 50, 52, 53
    4    7 N      8, 24, 27, 32, 35, 40, 43, 48, 51

molecular fragmentation (1/2 indicates fragments):
11111111111111111111122222222222222222222222222222222
# atoms in fragment 1/2:    21    32
 fragment masses (1/2) :      104.17      240.22
CMA distance (Bohr)    :   5.941
constraining FC (au)   :  0.0500

           -------------------------------------------------
          |                 G F N 2 - x T B                 |
           -------------------------------------------------

        Reference                      10.1021/acs.jctc.8b01176
      * Hamiltonian:
        H0-scaling (s, p, d)           1.850000    2.230000    2.230000
        zeta-weighting                 0.500000
      * Dispersion:
        s8                             2.700000
        a1                             0.520000
        a2                             5.000000
        s9                             5.000000
      * Repulsion:
        kExp                           1.500000    1.000000
        rExp                           1.000000
      * Coulomb:
        alpha                          2.000000
        third order                    shell-resolved
        anisotropic                    true
        a3                             3.000000
        a5                             4.000000
        cn-shift                       1.200000
        cn-exp                         4.000000
        max-rad                        5.000000


          ...................................................
          :                      SETUP                      :
          :.................................................:
          :  # basis functions                 122          :
          :  # atomic orbitals                 122          :
          :  # shells                           76          :
          :  # electrons                       140          :
          :  max. iterations                   250          :
          :  Hamiltonian                  GFN2-xTB          :
          :  restarted?                      false          :
          :  GBSA solvation                  false          :
          :  PC potential                    false          :
          :  electronic temp.          300.0000000     K    :
          :  accuracy                    1.0000000          :
          :  -> integral cutoff          0.2500000E+02      :
          :  -> integral neglect         0.1000000E-07      :
          :  -> SCF convergence          0.1000000E-05 Eh   :
          :  -> wf. convergence          0.1000000E-03 e    :
          :  Broyden damping             0.4000000          :
          ...................................................

 iter      E             dE          RMSdq      gap      omega  full diag
   1    -81.5603749 -0.815604E+02  0.433E+00    5.19       0.0  T
   2    -81.8443035 -0.283929E+00  0.237E+00    5.99       1.0  T
   3    -81.8501353 -0.583182E-02  0.115E+00    5.68       1.0  T
   4    -81.8515793 -0.144395E-02  0.238E-01    5.73       1.0  T
   5    -81.8524400 -0.860773E-03  0.921E-02    5.66       1.0  T
   6    -81.8524651 -0.251162E-04  0.281E-02    5.68       1.0  T
   7    -81.8524699 -0.472889E-05  0.768E-03    5.68       1.8  T
   8    -81.8524702 -0.286623E-06  0.299E-03    5.67       4.6  T
   9    -81.8524702 -0.338512E-07  0.112E-03    5.67      12.3  T
  10    -81.8524702 -0.630413E-08  0.181E-04    5.67      76.1  T
  11    -81.8524702 -0.250196E-09  0.899E-05    5.67     152.9  T

   *** convergence criteria satisfied after 11 iterations ***

         #    Occupation            Energy/Eh            Energy/eV
      -------------------------------------------------------------
         1        2.0000           -0.7925320             -21.5659
       ...           ...                  ...                  ...
        64        2.0000           -0.4989198             -13.5763
        65        2.0000           -0.4978160             -13.5463
        66        2.0000           -0.4975268             -13.5384
        67        2.0000           -0.4950152             -13.4700
        68        2.0000           -0.4912340             -13.3672
        69        2.0000           -0.4894560             -13.3188
        70        2.0000           -0.4834250             -13.1547 (HOMO)
        71                         -0.2748827              -7.4799 (LUMO)
        72                         -0.2735455              -7.4436
        73                         -0.2702951              -7.3551
        74                         -0.2587186              -7.0401
        75                         -0.1452543              -3.9526
       ...                                ...                  ...
       122                          0.5610064              15.2658
      -------------------------------------------------------------
                  HL-Gap            0.2085422 Eh            5.6747 eV
             Fermi-level           -0.3791539 Eh          -10.3173 eV

 SCC (total)                   0 d,  0 h,  0 min,  0.093 sec
 SCC setup                      ...        0 min,  0.000 sec (  0.312%)
 Dispersion                     ...        0 min,  0.001 sec (  0.630%)
 classical contributions        ...        0 min,  0.000 sec (  0.194%)
 integral evaluation            ...        0 min,  0.008 sec (  8.822%)
 iterations                     ...        0 min,  0.054 sec ( 58.605%)
 molecular gradient             ...        0 min,  0.029 sec ( 31.165%)
 printout                       ...        0 min,  0.000 sec (  0.260%)

         :::::::::::::::::::::::::::::::::::::::::::::::::::::
         ::                     SUMMARY                     ::
         :::::::::::::::::::::::::::::::::::::::::::::::::::::
         :: total energy             -80.937830954882 Eh    ::
         :: gradient norm              0.000090308166 Eh/a0 ::
         :: HOMO-LUMO gap              5.674723272285 eV    ::
         ::.................................................::
         :: SCC energy               -81.852470202462 Eh    ::
         :: -> isotropic ES            0.290946533062 Eh    ::
         :: -> anisotropic ES         -0.028044353027 Eh    ::
         :: -> anisotropic XC          0.020487586897 Eh    ::
         :: -> dispersion             -0.045350990014 Eh    ::
         :: repulsion energy           0.912664301994 Eh    ::
         :: add. restraining           0.000000000000 Eh    ::
         :: total charge               1.000000000000 e     ::
         :::::::::::::::::::::::::::::::::::::::::::::::::::::

           ------------------------------------------------- 
          |                Numerical Hessian                |
           ------------------------------------------------- 
step length          :   0.00500
SCC accuracy         :   0.30000
Hessian scale factor :   1.00000
frozen atoms in %    :   0.00000    0
RMS gradient         :   0.00009
estimated CPU  time      0.25 min
estimated wall time      0.25 min

writing file <hessian>.

 projected vibrational frequencies (cm⁻¹)
eigval :       -0.00    -0.00    -0.00     0.00     0.00     0.00
eigval :       15.52    19.46    26.05    30.94    38.94    43.22
eigval :       47.75    56.80    59.41    62.72    66.19    69.85
eigval :       75.06    77.02    84.52    88.43    99.15   110.20
eigval :      114.74   132.05   141.79   150.16   182.70   190.82
eigval :      200.18   227.83   244.64   259.45   298.95   307.98
eigval :      312.53   320.11   338.14   340.00   358.11   376.28
eigval :      404.09   421.65   427.18   437.64   451.34   460.76
eigval :      465.43   466.45   471.58   473.27   475.55   479.90
eigval :      482.62   485.51   488.24   532.28   542.06   543.26
eigval :      546.66   556.44   648.60   665.45   672.68   676.33
eigval :      688.92   700.72   716.71   730.66   758.30   766.34
eigval :      911.37   924.84   958.77   965.26   967.26   970.82
eigval :      999.74  1007.01  1008.70  1011.92  1015.56  1016.68
eigval :     1025.58  1033.69  1038.94  1084.87  1086.10  1089.73
eigval :     1093.36  1094.24  1102.96  1126.29  1165.14  1226.91
eigval :     1247.35  1273.02  1317.24  1330.09  1352.42  1358.95
eigval :     1360.63  1363.72  1368.40  1383.47  1402.26  1407.41
eigval :     1417.27  1433.19  1441.49  1446.77  1455.08  1455.95
eigval :     1457.70  1462.62  1464.07  1468.21  1469.38  1481.20
eigval :     1491.48  1498.95  1507.54  1510.37  1512.54  1669.57
eigval :     1691.30  1693.73  1720.51  2904.85  2984.48  2989.71
eigval :     2999.55  3037.15  3039.59  3039.98  3042.29  3044.39
eigval :     3046.20  3049.15  3054.54  3062.06  3237.84  3262.40
eigval :     3283.00  3294.25  3348.97  3493.45  3494.44  3495.82
eigval :     3501.51  3524.36  3525.70  3528.39  3530.65  3556.65
eigval :     3558.48  3560.64  3567.46
           -------------------------------------------------
          |                Property Printout                |
           -------------------------------------------------

    * Orbital Energies and Occupations

         #    Occupation            Energy/Eh            Energy/eV
      -------------------------------------------------------------
         1        2.0000           -0.7925322             -21.5659
       ...           ...                  ...                  ...
        58        2.0000           -0.5106573             -13.8957
        59        2.0000           -0.5077210             -13.8158
        60        2.0000           -0.5059504             -13.7676
        61        2.0000           -0.5031420             -13.6912
        62        2.0000           -0.5021186             -13.6633
        63        2.0000           -0.5002032             -13.6112
        64        2.0000           -0.4989201             -13.5763
        65        2.0000           -0.4978162             -13.5463
        66        2.0000           -0.4975269             -13.5384
        67        2.0000           -0.4950160             -13.4701
        68        2.0000           -0.4912331             -13.3671
        69        2.0000           -0.4894566             -13.3188
        70        2.0000           -0.4834257             -13.1547 (HOMO)
        71                         -0.2748831              -7.4800 (LUMO)
        72                         -0.2735454              -7.4435
        73                         -0.2702950              -7.3551
        74                         -0.2587189              -7.0401
        75                         -0.1452543              -3.9526
        76                         -0.1059552              -2.8832
        77                         -0.0882166              -2.4005
        78                         -0.0826904              -2.2501
        79                         -0.0797690              -2.1706
        80                         -0.0748671              -2.0372
        81                         -0.0680783              -1.8525
       ...                                ...                  ...
       122                          0.5610061              15.2658
      -------------------------------------------------------------
                  HL-Gap            0.2085426 Eh            5.6747 eV
             Fermi-level           -0.3791544 Eh          -10.3173 eV

     #   Z          covCN         q      C6AA      α(0)
     1   8 O        1.654    -0.466    22.173     6.357
     2   6 C        3.673     0.074    19.576     6.341
     3   1 H        0.924     0.056     2.249     2.345
     4   1 H        0.924     0.040     2.443     2.444
     5   6 C        3.769    -0.078    22.020     6.687
     6   1 H        0.924     0.116     1.644     2.005
     7   1 H        0.924     0.123     1.589     1.971
     8   7 N        3.624     0.158    18.582     6.402
     9   6 C        3.721    -0.106    22.648     6.797
    10   1 H        0.925     0.106     1.735     2.060
    11   1 H        0.925     0.077     2.006     2.215
    12   1 H        0.925     0.115     1.655     2.012
    13   6 C        3.737    -0.117    22.836     6.819
    14   1 H        0.925     0.117     1.639     2.002
    15   1 H        0.925     0.117     1.634     1.999
    16   1 H        0.925     0.078     2.000     2.212
    17   6 C        3.723    -0.105    22.625     6.792
    18   1 H        0.925     0.122     1.598     1.977
    19   1 H        0.925     0.092     1.859     2.132
    20   1 H        0.925     0.083     1.946     2.181
    21   1 H        0.803     0.328     0.643     1.260
    22   6 C        2.675     0.344    21.159     7.527
    23   8 O        0.860    -0.526    24.376     6.620
    24   7 N        2.645    -0.296    27.617     7.805
    25   1 H        0.860     0.197     1.121     1.659
    26   1 H        0.860     0.180     1.213     1.725
    27   7 N        2.644    -0.314    28.074     7.869
    28   1 H        0.860     0.173     1.256     1.756
    29   1 H        0.860     0.233     0.953     1.530
    30   6 C        2.675     0.342    21.195     7.533
    31   8 O        0.860    -0.535    24.565     6.645
    32   7 N        2.644    -0.298    27.688     7.815
    33   1 H        0.860     0.246     0.899     1.485
    34   1 H        0.861     0.179     1.221     1.731
    35   7 N        2.645    -0.296    27.639     7.808
    36   1 H        0.860     0.183     1.198     1.715
    37   1 H        0.860     0.197     1.123     1.660
    38   6 C        2.675     0.344    21.165     7.528
    39   8 O        0.861    -0.536    24.596     6.649
    40   7 N        2.644    -0.290    27.471     7.784
    41   1 H        0.860     0.202     1.096     1.640
    42   1 H        0.861     0.185     1.183     1.704
    43   7 N        2.644    -0.307    27.893     7.844
    44   1 H        0.860     0.178     1.224     1.733
    45   1 H        0.860     0.240     0.922     1.504
    46   6 C        2.675     0.341    21.212     7.537
    47   8 O        0.860    -0.523    24.292     6.608
    48   7 N        2.646    -0.291    27.496     7.788
    49   1 H        0.860     0.200     1.108     1.649
    50   1 H        0.861     0.187     1.175     1.698
    51   7 N        2.645    -0.295    27.614     7.804
    52   1 H        0.860     0.184     1.193     1.711
    53   1 H        0.860     0.244     0.908     1.493

 Mol. C6AA /au·bohr⁶  :      21795.542457
 Mol. C8AA /au·bohr⁸  :     454305.973529
 Mol. α(0) /au        :        220.568485


Wiberg/Mayer (AO) data.
largest (>0.10) Wiberg bond orders for each atom

 ---------------------------------------------------------------------------
     #   Z sym  total        # sym  WBO       # sym  WBO       # sym  WBO
 ---------------------------------------------------------------------------
     1   8 O    1.956 --     2 C    1.017    21 H    0.834
     2   6 C    3.965 --     1 O    1.017     5 C    0.996     3 H    0.965
                             4 H    0.961
     3   1 H    0.996 --     2 C    0.965
     4   1 H    0.998 --     2 C    0.961
     5   6 C    3.917 --     2 C    0.996     6 H    0.953     7 H    0.944
                             8 N    0.927
     6   1 H    0.986 --     5 C    0.953
     7   1 H    0.985 --     5 C    0.944
     8   7 N    3.822 --    17 C    0.962     9 C    0.961    13 C    0.955
                             5 C    0.927
     9   6 C    3.929 --    11 H    0.979    10 H    0.972    12 H    0.964
                             8 N    0.961
    10   1 H    0.989 --     9 C    0.972
    11   1 H    0.994 --     9 C    0.979
    12   1 H    0.987 --     9 C    0.964
    13   6 C    3.919 --    16 H    0.979    15 H    0.963    14 H    0.959
                             8 N    0.955
    14   1 H    0.986 --    13 C    0.959
    15   1 H    0.986 --    13 C    0.963
    16   1 H    0.994 --    13 C    0.979
    17   6 C    3.931 --    20 H    0.977    19 H    0.974    18 H    0.966
                             8 N    0.962
    18   1 H    0.985 --    17 C    0.966
    19   1 H    0.991 --    17 C    0.974
    20   1 H    0.993 --    17 C    0.977
    21   1 H    0.893 --     1 O    0.834
    22   6 C    3.959 --    23 O    1.532    27 N    1.225    24 N    1.194
    23   8 O    1.896 --    22 C    1.532    27 N    0.146    24 N    0.138
    24   7 N    3.308 --    22 C    1.194    26 H    0.948    25 H    0.944
                            23 O    0.138
    25   1 H    0.961 --    24 N    0.944
    26   1 H    0.967 --    24 N    0.948
    27   7 N    3.316 --    22 C    1.225    28 H    0.951    29 H    0.887
                            23 O    0.146
    28   1 H    0.970 --    27 N    0.951
    29   1 H    0.946 --    27 N    0.887
    30   6 C    3.959 --    31 O    1.483    32 N    1.265    35 N    1.196
    31   8 O    1.885 --    30 C    1.483    32 N    0.143    35 N    0.129
    32   7 N    3.354 --    30 C    1.265    34 H    0.949    33 H    0.875
                            31 O    0.143
    33   1 H    0.939 --    32 N    0.875
    34   1 H    0.968 --    32 N    0.949
    35   7 N    3.309 --    30 C    1.196    36 H    0.947    37 H    0.944
                            31 O    0.129
    36   1 H    0.966 --    35 N    0.947
    37   1 H    0.961 --    35 N    0.944
    38   6 C    3.959 --    39 O    1.479    43 N    1.249    40 N    1.213
    39   8 O    1.886 --    38 C    1.479    43 N    0.138    40 N    0.131
    40   7 N    3.326 --    38 C    1.213    42 H    0.947    41 H    0.942
                            39 O    0.131
    41   1 H    0.959 --    40 N    0.942
    42   1 H    0.965 --    40 N    0.947
    43   7 N    3.336 --    38 C    1.249    44 H    0.948    45 H    0.874
                            39 O    0.138
    44   1 H    0.968 --    43 N    0.948
    45   1 H    0.942 --    43 N    0.874
    46   6 C    3.960 --    47 O    1.486    51 N    1.253    48 N    1.209
    47   8 O    1.923 --    46 C    1.486    51 N    0.141    48 N    0.133
    48   7 N    3.324 --    46 C    1.209    50 H    0.946    49 H    0.943
                            47 O    0.133
    49   1 H    0.960 --    48 N    0.943
    50   1 H    0.965 --    48 N    0.946
    51   7 N    3.345 --    46 C    1.253    52 H    0.947    53 H    0.889
                            47 O    0.141
    52   1 H    0.966 --    51 N    0.947
    53   1 H    0.941 --    51 N    0.889
 ---------------------------------------------------------------------------

Topologies differ in total number of bonds
Writing topology from bond orders to xtbtopo.mol

molecular dipole:
                 x           y           z       tot (Debye)
 q only:       -0.056       0.014       0.785
   full:       -0.203       0.798       1.102       3.497
molecular quadrupole (traceless):
                xx          xy          yy          xz          yz          zz
 q only:       19.985       6.386       1.892      -6.648      -5.641     -21.877
  q+dip:       25.696       9.525      -1.017      -8.757      -8.168     -24.679
   full:       25.677       9.441      -1.193      -8.488      -7.706     -24.484

           -------------------------------------------------
          |               Frequency Printout                |
           -------------------------------------------------
 projected vibrational frequencies (cm⁻¹)
eigval :       -0.00    -0.00    -0.00     0.00     0.00     0.00
eigval :       15.52    19.46    26.05    30.94    38.94    43.22
eigval :       47.75    56.80    59.41    62.72    66.19    69.85
eigval :       75.06    77.02    84.52    88.43    99.15   110.20
eigval :      114.74   132.05   141.79   150.16   182.70   190.82
eigval :      200.18   227.83   244.64   259.45   298.95   307.98
eigval :      312.53   320.11   338.14   340.00   358.11   376.28
eigval :      404.09   421.65   427.18   437.64   451.34   460.76
eigval :      465.43   466.45   471.58   473.27   475.55   479.90
eigval :      482.62   485.51   488.24   532.28   542.06   543.26
eigval :      546.66   556.44   648.60   665.45   672.68   676.33
eigval :      688.92   700.72   716.71   730.66   758.30   766.34
eigval :      911.37   924.84   958.77   965.26   967.26   970.82
eigval :      999.74  1007.01  1008.70  1011.92  1015.56  1016.68
eigval :     1025.58  1033.69  1038.94  1084.87  1086.10  1089.73
eigval :     1093.36  1094.24  1102.96  1126.29  1165.14  1226.91
eigval :     1247.35  1273.02  1317.24  1330.09  1352.42  1358.95
eigval :     1360.63  1363.72  1368.40  1383.47  1402.26  1407.41
eigval :     1417.27  1433.19  1441.49  1446.77  1455.08  1455.95
eigval :     1457.70  1462.62  1464.07  1468.21  1469.38  1481.20
eigval :     1491.48  1498.95  1507.54  1510.37  1512.54  1669.57
eigval :     1691.30  1693.73  1720.51  2904.85  2984.48  2989.71
eigval :     2999.55  3037.15  3039.59  3039.98  3042.29  3044.39
eigval :     3046.20  3049.15  3054.54  3062.06  3237.84  3262.40
eigval :     3283.00  3294.25  3348.97  3493.45  3494.44  3495.82
eigval :     3501.51  3524.36  3525.70  3528.39  3530.65  3556.65
eigval :     3558.48  3560.64  3567.46
 reduced masses (amu)
   1: 12.68   2: 12.21   3: 12.12   4: 12.57   5: 12.64   6: 12.75   7: 12.25   8: 12.12
   9: 12.29  10: 12.13  11: 12.10  12: 12.71  13: 12.19  14: 11.66  15: 12.87  16: 12.10
  17: 12.27  18: 12.11  19: 12.66  20: 12.36  21: 12.45  22: 12.64  23: 12.74  24: 12.33
  25: 11.94  26: 12.09  27: 12.82  28: 12.65  29: 13.27  30:  9.98  31: 13.67  32: 13.69
  33:  3.11  34:  4.42  35:  4.04  36:  8.22  37:  3.01  38:  2.72  39:  5.13  40:  2.76
  41:  3.96  42:  5.85  43:  3.28  44:  3.17  45:  8.79  46:  3.21  47:  2.29  48:  8.26
  49:  4.77  50:  6.71  51:  4.53  52:  5.79  53:  4.62  54:  5.96  55:  6.11  56:  7.92
  57:  5.16  58: 11.09  59: 11.38  60: 11.14  61: 11.17  62:  8.17  63:  5.85  64:  9.28
  65: 11.18  66: 11.84  67:  7.57  68:  4.76  69:  2.72  70:  1.88  71:  2.75  72:  9.04
  73:  6.90  74:  8.51  75:  4.96  76:  4.81  77:  4.91  78:  4.94  79:  7.36  80:  8.87
  81:  9.18  82:  8.83  83:  7.62  84:  9.07  85:  5.87  86:  7.52  87:  3.10  88:  9.47
  89:  9.08  90:  8.27  91:  7.65  92:  8.15  93:  4.07  94:  8.26  95:  2.78  96:  5.17
  97:  7.23  98:  8.22  99:  5.99 100:  3.51 101:  4.59 102:  4.89 103:  6.18 104:  5.07
 105:  4.30 106:  4.53 107:  2.55 108:  2.57 109:  2.15 110:  2.53 111:  1.70 112:  3.22
 113:  1.75 114:  2.09 115:  2.76 116:  2.88 117:  2.59 118:  1.64 119:  2.22 120:  1.59
 121:  1.79 122:  7.63 123:  8.81 124:  8.80 125:  8.96 126: 12.67 127: 12.71 128: 12.66
 129: 12.75 130:  1.77 131:  1.68 132:  1.72 133:  1.80 134:  1.57 135:  1.59 136:  1.81
 137:  1.88 138:  1.53 139:  1.79 140:  1.91 141:  1.74 142:  1.75 143:  1.78 144:  1.77
 145:  1.86 146:  1.76 147:  1.74 148:  1.45 149:  1.45 150:  1.45 151:  1.45 152:  1.92
 153:  1.92 154:  1.92 155:  1.91 156:  2.17 157:  2.18 158:  2.18 159:  2.18
 IR intensities (km·mol⁻¹)
   1:  2.46   2:  1.03   3:  1.03   4:  0.40   5:  2.01   6:  2.02   7:  0.25   8:  0.45
   9:  1.97  10:  1.04  11:  4.83  12:  5.35  13:  1.34  14:  4.79  15:  2.08  16:  0.61
  17:  1.17  18:  0.93  19:  1.59  20:  7.04  21:  5.18  22:  1.33  23:  8.15  24:  6.81
  25:  8.37  26: 18.47  27: 14.87  28: 17.20  29: 32.96  30:  5.50  31: 37.72  32:  9.97
  33:170.72  34:  3.43  35:  4.06  36: 13.06  37:113.33  38:152.70  39:  2.62  40:110.68
  41:  2.80  42:  1.64  43:171.48  44:163.25  45:  0.58  46:171.99  47:374.35  48:  1.78
  49: 14.94  50:  4.41  51: 15.48  52: 46.97  53: 17.18  54: 31.61  55:  9.89  56: 21.49
  57: 10.18  58: 11.50  59: 38.89  60: 20.08  61: 31.76  62:  8.68  63: 45.20  64: 17.64
  65: 29.54  66: 31.28  67: 13.77  68: 66.98  69:356.52  70:177.48  71:426.56  72:  6.34
  73:  5.57  74:  5.36  75:  0.79  76:  0.41  77:  2.62  78:  0.06  79: 24.62  80: 33.29
  81:  6.58  82: 14.88  83: 24.69  84:  5.22  85: 26.14  86: 18.51  87:  2.34  88:  1.28
  89:  1.58  90:  4.95  91: 13.90  92:  7.35  93: 24.99  94: 34.75  95:  9.12  96:  5.85
  97:  2.13  98:  2.86  99:  4.43 100:  4.07 101: 33.07 102: 38.46 103:167.81 104:163.43
 105: 53.50 106: 29.11 107: 15.18 108:  9.87 109: 23.63 110: 19.06 111:  1.39 112:  1.55
 113:  9.10 114:  6.77 115:  0.76 116:  6.57 117:  8.47 118:  1.18 119: 10.56 120: 38.83
 121: 17.45 122:701.01 123: 41.20 124:665.58 125:777.78 126:713.58 127:667.85 128:807.33
 129:****** 130: 33.78 131: 37.06 132: 54.30 133:  1.43 134: 15.72 135:  4.48 136: 16.61
 137:  2.75 138: 32.84 139: 17.07 140: 12.72 141:  5.27 142:  2.34 143:502.69 144:931.26
 145:180.43 146:****** 147:670.71 148: 17.21 149: 16.80 150: 20.86 151: 19.59 152: 12.59
 153: 17.61 154: 14.62 155: 12.26 156: 10.87 157:  9.74 158: 15.33 159: 15.11
 Raman intensities (amu)
Molecule has no symmetry elements
It seems to be the C1 point group
   1:  0.00   2:  0.00   3:  0.00   4:  0.00   5:  0.00   6:  0.00   7:  0.00   8:  0.00
   9:  0.00  10:  0.00  11:  0.00  12:  0.00  13:  0.00  14:  0.00  15:  0.00  16:  0.00
  17:  0.00  18:  0.00  19:  0.00  20:  0.00  21:  0.00  22:  0.00  23:  0.00  24:  0.00
  25:  0.00  26:  0.00  27:  0.00  28:  0.00  29:  0.00  30:  0.00  31:  0.00  32:  0.00
  33:  0.00  34:  0.00  35:  0.00  36:  0.00  37:  0.00  38:  0.00  39:  0.00  40:  0.00
  41:  0.00  42:  0.00  43:  0.00  44:  0.00  45:  0.00  46:  0.00  47:  0.00  48:  0.00
  49:  0.00  50:  0.00  51:  0.00  52:  0.00  53:  0.00  54:  0.00  55:  0.00  56:  0.00
  57:  0.00  58:  0.00  59:  0.00  60:  0.00  61:  0.00  62:  0.00  63:  0.00  64:  0.00
  65:  0.00  66:  0.00  67:  0.00  68:  0.00  69:  0.00  70:  0.00  71:  0.00  72:  0.00
  73:  0.00  74:  0.00  75:  0.00  76:  0.00  77:  0.00  78:  0.00  79:  0.00  80:  0.00
  81:  0.00  82:  0.00  83:  0.00  84:  0.00  85:  0.00  86:  0.00  87:  0.00  88:  0.00
  89:  0.00  90:  0.00  91:  0.00  92:  0.00  93:  0.00  94:  0.00  95:  0.00  96:  0.00
  97:  0.00  98:  0.00  99:  0.00 100:  0.00 101:  0.00 102:  0.00 103:  0.00 104:  0.00
 105:  0.00 106:  0.00 107:  0.00 108:  0.00 109:  0.00 110:  0.00 111:  0.00 112:  0.00
 113:  0.00 114:  0.00 115:  0.00 116:  0.00 117:  0.00 118:  0.00 119:  0.00 120:  0.00
 121:  0.00 122:  0.00 123:  0.00 124:  0.00 125:  0.00 126:  0.00 127:  0.00 128:  0.00
 129:  0.00 130:  0.00 131:  0.00 132:  0.00 133:  0.00 134:  0.00 135:  0.00 136:  0.00
 137:  0.00 138:  0.00 139:  0.00 140:  0.00 141:  0.00 142:  0.00 143:  0.00 144:  0.00
 145:  0.00 146:  0.00 147:  0.00 148:  0.00 149:  0.00 150:  0.00 151:  0.00 152:  0.00
 153:  0.00 154:  0.00 155:  0.00 156:  0.00 157:  0.00 158:  0.00 159:  0.00
 output can be read by thermo (or use thermo option).
 writing <g98.out> molden fake output.
 recommended (thermochemical) frequency scaling factor: 1.0
           -------------------------------------------------
          |             Thermodynamic Functions             |
           -------------------------------------------------

c1  symmetry found (for desy threshold:  0.10E+00) used in thermo

          ...................................................
          :                      SETUP                      :
          :.................................................:
          :  # frequencies                         153      :
          :  # imaginary freq.                       0      :
          :  linear?                             false      :
          :  only rotor calc.                    false      :
          :  symmetry                               c1      :
          :  rotational number                       1      :
          :  scaling factor                  1.0000000      :
          :  rotor cutoff                   50.0000000 cm⁻¹ :
          :  imag. cutoff                  -20.0000000 cm⁻¹ :
          :.................................................:

    mode    ω/cm⁻¹     T·S(HO)/kcal·mol⁻¹    T·S(FR)/kcal·mol⁻¹   T·S(vib)
   ------------------------------------------------------------------------
       1     15.52    -2.12802 (  0.92%)    -1.40294 ( 99.08%)    -1.40962
       2     19.46    -1.99425 (  2.24%)    -1.33604 ( 97.76%)    -1.35080
       3     26.05    -1.82154 (  6.86%)    -1.24962 ( 93.14%)    -1.28888
       4     30.94    -1.71973 ( 12.79%)    -1.19865 ( 87.21%)    -1.26531
       5     38.94    -1.58379 ( 26.90%)    -1.13053 ( 73.10%)    -1.25247
       6     43.22    -1.52223 ( 35.83%)    -1.09966 ( 64.17%)    -1.25108
       7     47.75    -1.46343 ( 45.41%)    -1.07014 ( 54.59%)    -1.24875
       8     56.80    -1.36116 ( 62.48%)    -1.01874 ( 37.52%)    -1.23270
       9     59.41    -1.33476 ( 66.59%)    -1.00546 ( 33.41%)    -1.22473
      10     62.72    -1.30281 ( 71.23%)    -0.98936 ( 28.77%)    -1.21264
      11     66.19    -1.27118 ( 75.44%)    -0.97343 ( 24.56%)    -1.19804
      12     69.85    -1.23954 ( 79.21%)    -0.95746 ( 20.79%)    -1.18089
      13     75.06    -1.19736 ( 83.55%)    -0.93616 ( 16.45%)    -1.15440
      14     77.02    -1.18228 ( 84.92%)    -0.92853 ( 15.08%)    -1.14401
      15     84.52    -1.12793 ( 89.09%)    -0.90102 ( 10.91%)    -1.10317
      16     88.43    -1.10154 ( 90.73%)    -0.88763 (  9.27%)    -1.08170
      17     99.15    -1.03489 ( 93.92%)    -0.85374 (  6.08%)    -1.02389
      18    110.20    -0.97357 ( 95.93%)    -0.82242 (  4.07%)    -0.96743
      19    114.74    -0.95025 ( 96.52%)    -0.81047 (  3.48%)    -0.94538
      20    132.05    -0.86939 ( 97.99%)    -0.76884 (  2.01%)    -0.86736
      21    141.79    -0.82874 ( 98.48%)    -0.74776 (  1.52%)    -0.82751
      22    150.16    -0.79611 ( 98.79%)    -0.73077 (  1.21%)    -0.79532
      23    182.70    -0.68593 ( 99.44%)    -0.67266 (  0.56%)    -0.68586
      24    190.82    -0.66185 ( 99.53%)    -0.65979 (  0.47%)    -0.66185
      25    200.18    -0.63550 ( 99.61%)    -0.64560 (  0.39%)    -0.63554
      26    227.83    -0.56529 ( 99.77%)    -0.60727 (  0.23%)    -0.56539
      27    244.64    -0.52739 ( 99.83%)    -0.58618 (  0.17%)    -0.52749
      28    259.45    -0.49655 ( 99.86%)    -0.56877 (  0.14%)    -0.49665
      29    298.95    -0.42421 ( 99.92%)    -0.52679 (  0.08%)    -0.42429
   ------------------------------------------------------------------------

   temp. (K)  partition function   enthalpy   heat capacity  entropy
                                   cal/mol     cal/K/mol   cal/K/mol   J/K/mol
 298.15  VIB  0.165E+17            19203.664    104.652    125.944
         ROT  0.111E+08              888.752      2.981     35.211
         INT  0.182E+24            20092.417    107.633    161.154
         TR   0.618E+28             1481.254      4.968     43.384
         TOT                       21573.6706   112.6007   204.5388   855.7905

       T/K    H(0)-H(T)+PV         H(T)/Eh          T*S/Eh         G(T)/Eh
   ------------------------------------------------------------------------
    298.15    0.343798E-01    0.474298E+00    0.971830E-01    0.377115E+00
   ------------------------------------------------------------------------

         :::::::::::::::::::::::::::::::::::::::::::::::::::::
         ::                  THERMODYNAMIC                  ::
         :::::::::::::::::::::::::::::::::::::::::::::::::::::
         :: total free energy         -80.560715696211 Eh   ::
         ::.................................................::
         :: total energy              -80.937830954920 Eh   ::
         :: zero point energy           0.439918431648 Eh   ::
         :: G(RRHO) w/o ZPVE           -0.062803172940 Eh   ::
         :: G(RRHO) contrib.            0.377115258709 Eh   ::
         :::::::::::::::::::::::::::::::::::::::::::::::::::::

           -------------------------------------------------
          | TOTAL ENERGY              -80.937830954920 Eh   |
          | TOTAL ENTHALPY            -80.463532690807 Eh   |
          | TOTAL FREE ENERGY         -80.560715696211 Eh   |
          | GRADIENT NORM               0.000090101487 Eh/α |
          | HOMO-LUMO GAP               5.674733604217 eV   |
           -------------------------------------------------

------------------------------------------------------------------------
 * finished run on 2024/01/10 at 15:33:58.699     
------------------------------------------------------------------------
 total:
 * wall-time:     0 d,  0 h,  0 min, 14.980 sec
 *  cpu-time:     0 d,  0 h,  0 min, 14.899 sec
 * ratio c/w:     0.995 speedup
 SCF:
 * wall-time:     0 d,  0 h,  0 min,  0.093 sec
 *  cpu-time:     0 d,  0 h,  0 min,  0.060 sec
 * ratio c/w:     0.641 speedup
 analytical hessian:
 * wall-time:     0 d,  0 h,  0 min, 14.859 sec
 *  cpu-time:     0 d,  0 h,  0 min, 14.812 sec
 * ratio c/w:     0.997 speedup

