 Entering Gaussian System
 *********************************************
 Gaussian 98:
 frequency output generated by the xtb code
 *********************************************
                         Standard orientation:
 --------------------------------------------------------------------
  Center     Atomic     Atomic              Coordinates (Angstroms)
  Number     Number      Type              X           Y           Z
 --------------------------------------------------------------------
    1          8             0       -2.634753    1.347269    2.317694
    2          6             0       -2.864310    0.238291    1.494064
    3          1             0       -2.034925   -0.472643    1.524559
    4          1             0       -3.760929   -0.270779    1.868815
    5          6             0       -3.180531    0.674771    0.051092
    6          1             0       -3.775712    1.587673    0.130650
    7          1             0       -3.780862   -0.094918   -0.436761
    8          7             0       -2.011402    0.957632   -0.822476
    9          6             0       -2.489919    1.614020   -2.052404
   10          1             0       -3.221985    0.986097   -2.556175
   11          1             0       -1.634789    1.777371   -2.710240
   12          1             0       -2.948082    2.571618   -1.814134
   13          6             0       -1.324410   -0.287409   -1.201127
   14          1             0       -0.981164   -0.823645   -0.318858
   15          1             0       -0.465824   -0.034228   -1.823057
   16          1             0       -1.998305   -0.928589   -1.765653
   17          6             0       -1.043994    1.854126   -0.167619
   18          1             0       -0.272583    2.109126   -0.892910
   19          1             0       -0.586347    1.364684    0.688846
   20          1             0       -1.546829    2.757269    0.171193
   21          1             0       -1.691130    1.381684    2.561464
   22          6             0        2.206089    0.097025   -0.433160
   23          8             0        2.097902   -0.761899   -1.319043
   24          7             0        2.868024    1.253797   -0.652697
   25          1             0        3.299460    1.410414   -1.545644
   26          1             0        2.988739    1.936324    0.072183
   27          7             0        1.684346   -0.080554    0.788104
   28          1             0        1.633894    0.661276    1.466000
   29          1             0        1.061870   -0.870944    0.939846
   30          6             0        1.183644    1.395305   -3.939319
   31          8             0        0.384028    1.614416   -3.033797
   32          7             0        1.082523    2.020389   -5.142085
   33          1             0        0.432301    2.781317   -5.228939
   34          1             0        1.811384    1.953089   -5.829276
   35          7             0        2.208176    0.529290   -3.800179
   36          1             0        2.744850    0.240687   -4.598432
   37          1             0        2.211563   -0.072532   -2.974181
   38          6             0        0.238366   -3.247155    0.544480
   39          8             0       -0.154303   -2.214120    1.107062
   40          7             0       -0.115470   -4.464763    1.016413
   41          1             0       -0.765272   -4.520920    1.780046
   42          1             0        0.131020   -5.312032    0.538547
   43          7             0        1.008431   -3.209173   -0.548008
   44          1             0        1.373756   -4.054220   -0.948293
   45          1             0        1.399568   -2.315931   -0.871482
   46          6             0        0.133606    0.206407    3.848872
   47          8             0       -0.004488    0.928078    2.858201
   48          7             0        0.055390   -1.134157    3.769297
   49          1             0       -0.056613   -1.570552    2.860285
   50          1             0        0.237801   -1.716491    4.565662
   51          7             0        0.381195    0.731334    5.070507
   52          1             0        0.386508    0.169090    5.901811
   53          1             0        0.340173    1.729754    5.175311
 --------------------------------------------------------------------
     1 basis functions        1 primitive gaussians
     1 alpha electrons        1 beta electrons

 Harmonic frequencies (cm**-1), IR intensities (km*mol⁻¹),
 Raman scattering activities (A**4/amu), Raman depolarization ratios,
 reduced masses (AMU), force constants (mDyne/A) and normal coordinates:
                      1                      2                      3
                        a                      a                      a 
 Frequencies --    20.3991                29.2952                32.1608
 Red. masses --    12.6180                12.4255                12.5060
 Frc consts  --     0.0000                 0.0000                 0.0000
 IR Inten    --     1.6719                 0.6844                 0.7426
 Raman Activ --     0.0000                 0.0000                 0.0000
 Depolar     --     0.0000                 0.0000                 0.0000
 Atom AN      X      Y      Z        X      Y      Z        X      Y      Z
   1   8     0.14   0.34  -0.01     0.13  -0.14  -0.06    -0.18  -0.33   0.10
   2   6     0.04   0.24   0.09     0.14  -0.13  -0.04    -0.08  -0.18  -0.08
   3   1     0.01   0.06   0.04     0.05  -0.03  -0.02    -0.02  -0.05  -0.04
   4   1     0.01   0.09   0.05     0.05  -0.05  -0.00    -0.03  -0.07  -0.06
   5   6     0.02   0.14   0.07     0.06  -0.15  -0.02    -0.02   0.00  -0.04
   6   1     0.01   0.05   0.01     0.01  -0.05   0.00    -0.00   0.00   0.01
   7   1    -0.00   0.03   0.04     0.02  -0.05  -0.00    -0.00   0.02  -0.05
   8   7     0.01   0.06   0.03     0.02  -0.10  -0.07     0.02   0.08   0.03
   9   6     0.00   0.01   0.01    -0.05  -0.11  -0.05     0.07   0.18   0.06
  10   1    -0.01   0.00   0.02    -0.01  -0.04  -0.01     0.02   0.06  -0.00
  11   1    -0.00  -0.02  -0.01    -0.02  -0.02  -0.02     0.03   0.06   0.03
  12   1     0.01   0.01  -0.01    -0.02  -0.04  -0.01     0.02   0.05   0.03
  13   6    -0.04   0.01   0.08     0.06  -0.06  -0.09     0.04   0.11  -0.04
  14   1    -0.01   0.01   0.03     0.03  -0.01  -0.03     0.01   0.02  -0.02
  15   1    -0.01  -0.01   0.01     0.01  -0.01  -0.03     0.01   0.05  -0.00
  16   1    -0.02   0.00   0.04     0.02  -0.02  -0.02     0.01   0.04  -0.03
  17   6     0.06   0.05  -0.04     0.00  -0.05  -0.09    -0.01   0.03   0.14
  18   1     0.01  -0.00  -0.02    -0.01  -0.01  -0.03     0.01   0.02   0.06
  19   1     0.02   0.02  -0.01     0.01  -0.01  -0.03    -0.02  -0.01   0.04
  20   1     0.03   0.03  -0.02    -0.01  -0.02  -0.02    -0.01   0.00   0.05
  21   1     0.03   0.06   0.01     0.03  -0.03  -0.01    -0.04  -0.06   0.01
  22   6     0.00   0.09   0.08    -0.08   0.07   0.13     0.14   0.08   0.05
  23   8     0.11   0.11   0.07    -0.05   0.12   0.12     0.21   0.06   0.08
  24   7    -0.17   0.19   0.11    -0.28   0.19   0.14     0.23   0.04   0.08
  25   1    -0.02   0.06   0.04    -0.07   0.06   0.04     0.08  -0.00   0.03
  26   1    -0.03   0.03   0.05    -0.05   0.02   0.06     0.05   0.02   0.01
  27   7     0.03  -0.01   0.09     0.03  -0.05   0.18     0.02   0.15   0.01
  28   1    -0.02  -0.01   0.03    -0.02  -0.01   0.05     0.01   0.04   0.00
  29   1     0.02  -0.02   0.01     0.02  -0.02   0.04    -0.00   0.05  -0.00
  30   6    -0.06  -0.14  -0.09     0.03  -0.00  -0.06    -0.05  -0.15  -0.01
  31   8    -0.08  -0.14  -0.12    -0.10  -0.04  -0.18     0.09  -0.00   0.07
  32   7    -0.14  -0.32  -0.17     0.12  -0.06  -0.10    -0.23  -0.37  -0.11
  33   1    -0.06  -0.10  -0.07     0.01  -0.04  -0.06    -0.05  -0.09  -0.03
  34   1    -0.03  -0.08  -0.04     0.06  -0.01  -0.00    -0.08  -0.12  -0.05
  35   7     0.04  -0.02   0.00     0.10   0.11   0.10    -0.05  -0.16  -0.03
  36   1     0.02  -0.02   0.01     0.06   0.03   0.05    -0.04  -0.07  -0.02
  37   1     0.02   0.02   0.02     0.01   0.03   0.03     0.02  -0.01   0.01
  38   6     0.10  -0.03  -0.10    -0.16   0.04  -0.05    -0.04   0.13  -0.06
  39   8     0.09  -0.07  -0.05    -0.07   0.03   0.06    -0.02   0.16  -0.08
  40   7     0.10  -0.06  -0.20    -0.31   0.03  -0.21    -0.16   0.15  -0.13
  41   1     0.02  -0.03  -0.06    -0.07   0.00  -0.05    -0.06   0.05  -0.04
  42   1     0.03  -0.01  -0.07    -0.09   0.01  -0.07    -0.04   0.04  -0.03
  43   7     0.13   0.05  -0.09    -0.17   0.09  -0.06     0.04   0.11  -0.01
  44   1     0.04   0.02  -0.04    -0.07   0.03  -0.04     0.00   0.03  -0.00
  45   1     0.03   0.02  -0.01    -0.03   0.02   0.01     0.03   0.03   0.01
  46   6    -0.08  -0.11   0.05     0.13   0.05   0.08    -0.00  -0.01   0.00
  47   8     0.03  -0.08   0.08     0.14   0.07   0.11    -0.10   0.01   0.03
  48   7    -0.08  -0.12  -0.02     0.03   0.06   0.10     0.01  -0.02  -0.03
  49   1     0.00  -0.02  -0.01    -0.01   0.02   0.03    -0.01   0.00  -0.01
  50   1    -0.05  -0.04  -0.01     0.01   0.01   0.02     0.03  -0.01  -0.02
  51   7    -0.24  -0.18   0.11     0.28   0.04   0.07     0.10  -0.05  -0.01
  52   1    -0.08  -0.06   0.02     0.07   0.01   0.02     0.04  -0.02  -0.01
  53   1    -0.06  -0.05   0.04     0.09   0.01   0.02     0.02  -0.01   0.01
                      4                      5                      6
                        a                      a                      a 
 Frequencies --    35.5840                41.5244                44.7226
 Red. masses --    12.4725                12.1397                12.1268
 Frc consts  --     0.0000                 0.0000                 0.0000
 IR Inten    --     2.2789                 1.2441                 1.0002
 Raman Activ --     0.0000                 0.0000                 0.0000
 Depolar     --     0.0000                 0.0000                 0.0000
 Atom AN      X      Y      Z        X      Y      Z        X      Y      Z
   1   8     0.09  -0.10  -0.07     0.01  -0.18   0.07    -0.19  -0.04   0.08
   2   6     0.06  -0.05  -0.11     0.09  -0.12  -0.02    -0.16   0.03  -0.03
   3   1     0.02  -0.02  -0.04     0.04  -0.02  -0.01    -0.06  -0.00  -0.00
   4   1     0.02  -0.02  -0.04     0.03  -0.05  -0.02    -0.06   0.02  -0.04
   5   6     0.05   0.03  -0.08     0.13  -0.05  -0.00    -0.04   0.13  -0.03
   6   1     0.02   0.01  -0.01     0.03  -0.02   0.01     0.00   0.05  -0.01
   7   1     0.01   0.02  -0.03     0.05  -0.01  -0.02    -0.02   0.06  -0.03
   8   7     0.05   0.07  -0.08     0.16   0.03   0.05     0.03   0.11   0.05
   9   6     0.05   0.15  -0.03     0.16   0.06   0.06     0.12   0.11   0.02
  10   1     0.01   0.06  -0.02     0.06   0.02   0.00     0.04   0.04  -0.01
  11   1     0.01   0.05  -0.01     0.05   0.03   0.02     0.05   0.03   0.02
  12   1     0.02   0.04   0.01     0.04   0.01   0.02     0.03   0.03  -0.00
  13   6     0.02   0.08  -0.15     0.19   0.06   0.02     0.01   0.08   0.09
  14   1     0.00   0.01  -0.05     0.06   0.01   0.00    -0.01   0.02   0.03
  15   1     0.01   0.03  -0.04     0.06   0.03   0.01     0.01   0.02   0.03
  16   1     0.00   0.04  -0.05     0.06   0.01  -0.00     0.01   0.02   0.02
  17   6     0.06   0.01  -0.02     0.11   0.03   0.10     0.01   0.08   0.10
  18   1     0.02   0.01  -0.00     0.03   0.02   0.04     0.02   0.01   0.04
  19   1     0.01  -0.01  -0.01     0.03   0.00   0.03    -0.02   0.02   0.04
  20   1     0.02   0.00   0.01     0.02   0.00   0.03     0.00   0.03   0.02
  21   1     0.02  -0.04   0.00     0.00  -0.02   0.00    -0.04  -0.01   0.01
  22   6    -0.13   0.05  -0.02    -0.07  -0.01  -0.04    -0.15   0.01   0.01
  23   8    -0.22   0.06  -0.02    -0.19   0.02  -0.06    -0.02  -0.03   0.03
  24   7    -0.14   0.05  -0.06    -0.20   0.04  -0.11    -0.48   0.18  -0.04
  25   1    -0.06   0.01  -0.03    -0.09   0.03  -0.05    -0.14   0.07  -0.01
  26   1    -0.02   0.01  -0.02    -0.02   0.00  -0.03    -0.15   0.05  -0.01
  27   7    -0.06   0.06   0.02     0.15  -0.10   0.04    -0.03  -0.12   0.06
  28   1     0.00   0.01   0.01     0.04  -0.03   0.01    -0.06  -0.02   0.00
  29   1    -0.02   0.02   0.01     0.05  -0.03   0.02     0.02  -0.05   0.01
  30   6    -0.01   0.03  -0.12    -0.01   0.03  -0.07     0.08  -0.04   0.06
  31   8     0.02   0.16  -0.14     0.12   0.21  -0.00     0.16   0.02   0.11
  32   7     0.03  -0.04  -0.16    -0.05  -0.03  -0.10     0.04  -0.07   0.06
  33   1     0.03   0.00  -0.05     0.02   0.02  -0.02     0.02  -0.01   0.02
  34   1     0.01  -0.04  -0.04    -0.03  -0.04  -0.05     0.00  -0.03   0.00
  35   7    -0.08  -0.05  -0.08    -0.13  -0.11  -0.13     0.04  -0.10   0.02
  36   1    -0.03  -0.04  -0.02    -0.06  -0.06  -0.04    -0.00  -0.04  -0.00
  37   1    -0.03  -0.00  -0.01    -0.04  -0.02  -0.02     0.01  -0.02   0.01
  38   6     0.04   0.05   0.16    -0.02  -0.03   0.00     0.07  -0.13  -0.01
  39   8    -0.12   0.09   0.00     0.11  -0.05   0.12     0.02  -0.17  -0.03
  40   7     0.22   0.07   0.37    -0.02  -0.04  -0.02     0.05  -0.16  -0.07
  41   1     0.04   0.03   0.08     0.03  -0.02   0.02     0.00  -0.05  -0.03
  42   1     0.07   0.01   0.12    -0.03  -0.01  -0.02     0.03  -0.04  -0.02
  43   7     0.07  -0.01   0.19    -0.18  -0.01  -0.11     0.17  -0.12   0.05
  44   1     0.05  -0.00   0.09    -0.07  -0.00  -0.05     0.05  -0.03   0.01
  45   1    -0.01   0.00   0.02    -0.04  -0.00  -0.02     0.04  -0.03   0.02
  46   6    -0.01  -0.16   0.10    -0.08   0.06   0.05     0.06   0.05  -0.12
  47   8     0.04  -0.12   0.15     0.04  -0.00  -0.01    -0.11   0.05  -0.13
  48   7    -0.24  -0.16   0.06     0.16   0.05   0.09     0.03   0.05  -0.10
  49   1    -0.07  -0.02   0.01     0.06  -0.00   0.03    -0.01   0.01  -0.02
  50   1    -0.06  -0.06   0.00    -0.02   0.03   0.05     0.05   0.02  -0.03
  51   7     0.16  -0.26   0.11    -0.48   0.16   0.09     0.30   0.07  -0.19
  52   1     0.02  -0.08   0.02    -0.14   0.05   0.03     0.11   0.02  -0.05
  53   1     0.08  -0.07   0.04    -0.15   0.04   0.01     0.08   0.02  -0.05
                      7                      8                      9
                        a                      a                      a 
 Frequencies --    55.4304                57.5576                58.3783
 Red. masses --    12.5593                12.5686                12.3710
 Frc consts  --     0.0000                 0.0000                 0.0000
 IR Inten    --     0.8179                 1.6138                 3.7528
 Raman Activ --     0.0000                 0.0000                 0.0000
 Depolar     --     0.0000                 0.0000                 0.0000
 Atom AN      X      Y      Z        X      Y      Z        X      Y      Z
   1   8    -0.11   0.03  -0.03    -0.04   0.19  -0.16     0.06   0.20  -0.18
   2   6    -0.12   0.04  -0.04    -0.02   0.07  -0.02     0.06   0.06  -0.01
   3   1    -0.04   0.00  -0.01    -0.01   0.02   0.02     0.02   0.03   0.01
   4   1    -0.04   0.02  -0.02    -0.01   0.03   0.00     0.02   0.02   0.01
   5   6    -0.07   0.07  -0.04     0.02  -0.08  -0.08     0.03  -0.10  -0.05
   6   1    -0.01   0.03  -0.01    -0.01  -0.03  -0.06    -0.02  -0.04  -0.04
   7   1    -0.03   0.03  -0.02     0.03  -0.05  -0.01     0.03  -0.06   0.00
   8   7    -0.04   0.02  -0.02     0.06  -0.07  -0.03     0.03  -0.07  -0.05
   9   6     0.02   0.03  -0.03     0.09  -0.17  -0.10     0.01  -0.16  -0.09
  10   1     0.00   0.02  -0.01     0.05  -0.07  -0.03     0.02  -0.07  -0.03
  11   1     0.01  -0.00  -0.00     0.04  -0.04  -0.01     0.01  -0.03  -0.02
  12   1     0.02   0.02  -0.02    -0.00  -0.06  -0.05    -0.02  -0.05  -0.04
  13   6    -0.08  -0.01   0.01     0.14  -0.05   0.09     0.12  -0.03   0.02
  14   1    -0.03  -0.00   0.01     0.02   0.00   0.04     0.03   0.00   0.02
  15   1    -0.02  -0.01   0.00     0.06  -0.01   0.05     0.04  -0.00   0.02
  16   1    -0.03   0.00   0.00     0.07  -0.03   0.02     0.05  -0.02   0.00
  17   6    -0.03  -0.01   0.01    -0.03   0.03  -0.03    -0.05   0.04  -0.07
  18   1     0.00  -0.02   0.01    -0.01   0.02  -0.00    -0.02   0.02  -0.02
  19   1    -0.03  -0.00   0.01    -0.01   0.03  -0.00    -0.01   0.03  -0.01
  20   1    -0.00   0.01  -0.01    -0.03   0.00  -0.02    -0.04   0.00  -0.03
  21   1    -0.03  -0.02   0.02    -0.02   0.03  -0.01     0.00   0.02   0.00
  22   6    -0.10   0.07  -0.04    -0.00   0.02   0.04    -0.05   0.08  -0.07
  23   8    -0.10   0.04  -0.01    -0.08   0.07   0.02     0.05  -0.02   0.01
  24   7    -0.00   0.01  -0.04     0.12  -0.04   0.09    -0.08   0.08  -0.16
  25   1    -0.01  -0.00  -0.01    -0.01   0.01   0.01    -0.04   0.02  -0.05
  26   1    -0.03   0.02  -0.02     0.01   0.00   0.01    -0.08   0.07  -0.07
  27   7    -0.22   0.16  -0.08     0.00   0.02   0.05    -0.13   0.19  -0.10
  28   1    -0.03   0.04  -0.01     0.02  -0.00   0.02    -0.03   0.05  -0.03
  29   1    -0.05   0.04  -0.01     0.00   0.00   0.02    -0.01   0.03  -0.01
  30   6     0.11  -0.07  -0.02    -0.02   0.02   0.07    -0.01   0.00   0.08
  31   8     0.07  -0.15  -0.06     0.18   0.19   0.23     0.15   0.12   0.21
  32   7     0.14  -0.07  -0.02    -0.21  -0.09   0.04    -0.03   0.09   0.13
  33   1     0.02  -0.03  -0.01    -0.03   0.00   0.03     0.03   0.06   0.07
  34   1     0.05  -0.01   0.00    -0.08  -0.05  -0.02    -0.04  -0.00   0.01
  35   7     0.19   0.00   0.03    -0.08  -0.06  -0.03    -0.19  -0.23  -0.10
  36   1     0.06   0.00   0.01    -0.06  -0.05  -0.03    -0.08  -0.07  -0.04
  37   1     0.04  -0.01   0.00    -0.00  -0.00   0.00    -0.03  -0.05  -0.02
  38   6    -0.04   0.04  -0.00     0.00  -0.01  -0.05    -0.02   0.02   0.03
  39   8    -0.00   0.02   0.07     0.10  -0.06   0.10     0.03   0.05   0.02
  40   7     0.16   0.02   0.09     0.22  -0.06  -0.02    -0.35   0.05  -0.15
  41   1     0.07  -0.00   0.05     0.10  -0.04   0.03    -0.11   0.03  -0.05
  42   1     0.02   0.01   0.00     0.03  -0.00  -0.04    -0.08   0.01  -0.02
  43   7    -0.28   0.09  -0.17    -0.33   0.10  -0.30     0.24  -0.03   0.21
  44   1    -0.06   0.03  -0.05    -0.08   0.04  -0.10     0.03  -0.01   0.04
  45   1    -0.07   0.03  -0.04    -0.08   0.03  -0.05     0.07  -0.01   0.05
  46   6     0.10  -0.09   0.09    -0.03  -0.01   0.03     0.03  -0.08   0.08
  47   8    -0.19  -0.12   0.13    -0.10  -0.03   0.03    -0.06  -0.06   0.14
  48   7     0.57  -0.12   0.05    -0.28   0.00   0.11     0.19  -0.09   0.03
  49   1     0.12  -0.03   0.02    -0.06  -0.01   0.03     0.04  -0.01   0.00
  50   1     0.18  -0.03   0.01    -0.02   0.01   0.02     0.07  -0.03  -0.00
  51   7     0.00  -0.05   0.10     0.29   0.01  -0.04    -0.01  -0.12   0.11
  52   1     0.08  -0.02   0.02     0.07   0.01  -0.00     0.03  -0.04   0.02
  53   1    -0.07  -0.02   0.03     0.10   0.00  -0.02    -0.02  -0.03   0.04
                     10                     11                     12
                        a                      a                      a 
 Frequencies --    62.7561                71.4659                74.6185
 Red. masses --    12.5419                12.9925                12.5844
 Frc consts  --     0.0000                 0.0000                 0.0000
 IR Inten    --     2.6861                 4.0612                 6.3793
 Raman Activ --     0.0000                 0.0000                 0.0000
 Depolar     --     0.0000                 0.0000                 0.0000
 Atom AN      X      Y      Z        X      Y      Z        X      Y      Z
   1   8     0.04   0.06  -0.15    -0.16   0.13  -0.03    -0.03  -0.03   0.02
   2   6     0.05   0.03  -0.10    -0.13   0.07   0.02     0.01  -0.02  -0.00
   3   1     0.02   0.02  -0.03    -0.04   0.02   0.03     0.01   0.01  -0.01
   4   1     0.02   0.00  -0.02    -0.05   0.03  -0.00     0.01  -0.02  -0.00
   5   6     0.00  -0.00  -0.10    -0.04   0.00  -0.02    -0.04   0.00   0.01
   6   1    -0.01  -0.01  -0.03    -0.02  -0.00  -0.03    -0.02  -0.01   0.01
   7   1     0.01  -0.01  -0.03    -0.00  -0.01  -0.01    -0.00  -0.00   0.00
   8   7    -0.02   0.07  -0.11     0.00  -0.02   0.04    -0.07   0.08  -0.00
   9   6    -0.06   0.06  -0.09     0.03  -0.09  -0.02    -0.12   0.03   0.00
  10   1    -0.01   0.01  -0.03     0.02  -0.04  -0.01    -0.03  -0.00   0.01
  11   1    -0.02   0.03  -0.03     0.01  -0.03   0.00    -0.04   0.02  -0.01
  12   1    -0.03   0.01  -0.02    -0.00  -0.03  -0.03    -0.05   0.00  -0.00
  13   6     0.03   0.10  -0.12     0.06  -0.01   0.13     0.01   0.11  -0.01
  14   1     0.00   0.02  -0.04     0.02   0.02   0.05     0.03   0.04  -0.00
  15   1     0.02   0.04  -0.02     0.01  -0.01   0.03    -0.01   0.05  -0.02
  16   1     0.02   0.03  -0.05     0.03  -0.03   0.05     0.01   0.02   0.01
  17   6    -0.05   0.10  -0.10    -0.05   0.03   0.04    -0.10   0.13  -0.02
  18   1    -0.02   0.05  -0.03    -0.01   0.01   0.01    -0.04   0.05  -0.01
  19   1    -0.00   0.03  -0.04    -0.01   0.02   0.02    -0.02   0.05  -0.01
  20   1    -0.03   0.02  -0.02    -0.02   0.01   0.00    -0.04   0.03  -0.01
  21   1     0.01   0.01  -0.02    -0.04   0.01   0.01    -0.01  -0.00   0.01
  22   6     0.00  -0.10   0.18     0.11  -0.01   0.05     0.09  -0.00   0.11
  23   8    -0.03  -0.00   0.10    -0.10   0.05   0.03     0.18  -0.04   0.16
  24   7     0.12  -0.15   0.35     0.04   0.02  -0.05    -0.02   0.06   0.06
  25   1     0.06  -0.03   0.11    -0.02   0.00  -0.03     0.07  -0.03   0.04
  26   1     0.04  -0.06   0.12     0.10  -0.03   0.00     0.05  -0.01   0.03
  27   7    -0.09  -0.18   0.14     0.46  -0.10   0.19     0.07   0.02   0.11
  28   1    -0.03  -0.06   0.05     0.12  -0.01   0.03    -0.01   0.02   0.02
  29   1    -0.04  -0.04   0.00     0.09   0.00   0.06     0.02   0.00   0.02
  30   6    -0.11   0.09   0.01    -0.03   0.07  -0.09    -0.05  -0.09  -0.06
  31   8    -0.07   0.30   0.02    -0.10   0.09  -0.17    -0.17  -0.05  -0.18
  32   7    -0.16  -0.08  -0.09     0.03   0.02  -0.13     0.37   0.21   0.06
  33   1    -0.02  -0.01  -0.04     0.00  -0.00  -0.06     0.15   0.09   0.01
  34   1    -0.05  -0.05  -0.02     0.02   0.00  -0.02     0.12   0.02   0.04
  35   7    -0.17   0.06   0.08    -0.00   0.12   0.01    -0.38  -0.45  -0.08
  36   1    -0.05  -0.01   0.03     0.01   0.02   0.01    -0.05  -0.09   0.01
  37   1    -0.04   0.04   0.04    -0.02   0.03   0.00    -0.10  -0.09  -0.00
  38   6     0.00  -0.11   0.02    -0.02   0.06   0.09     0.06   0.00  -0.06
  39   8    -0.13  -0.15  -0.04     0.10   0.12   0.10     0.12  -0.01  -0.01
  40   7     0.07  -0.14   0.03    -0.19   0.11   0.07     0.14  -0.01  -0.02
  41   1    -0.01  -0.04  -0.01    -0.05   0.05   0.02     0.05  -0.01   0.00
  42   1     0.04  -0.03   0.01    -0.07   0.02   0.03     0.01   0.00  -0.03
  43   7     0.11  -0.10   0.10     0.02  -0.01   0.13    -0.09   0.02  -0.17
  44   1     0.05  -0.02   0.04    -0.02  -0.01   0.02    -0.02   0.01  -0.04
  45   1     0.01  -0.02   0.02     0.01  -0.01   0.02    -0.00   0.01  -0.02
  46   6     0.09   0.04  -0.02    -0.03  -0.16  -0.09    -0.00  -0.00   0.01
  47   8    -0.00   0.04  -0.02    -0.23  -0.30  -0.16    -0.04   0.01   0.02
  48   7     0.39   0.03  -0.07     0.10  -0.18   0.03    -0.02  -0.00   0.00
  49   1     0.07   0.00  -0.01     0.02  -0.06   0.02     0.00   0.00  -0.00
  50   1     0.08   0.01  -0.01     0.08  -0.03   0.01     0.01  -0.00  -0.00
  51   7    -0.03   0.06  -0.01     0.08  -0.02  -0.18     0.04  -0.01   0.01
  52   1     0.04   0.01  -0.01     0.05   0.02  -0.03     0.01  -0.01   0.00
  53   1    -0.04   0.01   0.00    -0.02  -0.01  -0.07     0.01  -0.00   0.01
                     13                     14                     15
                        a                      a                      a 
 Frequencies --    78.8098                86.6616                95.9697
 Red. masses --    12.6658                10.5537                12.6099
 Frc consts  --     0.0000                 0.0000                 0.0000
 IR Inten    --     1.4003                 3.2012                13.3319
 Raman Activ --     0.0000                 0.0000                 0.0000
 Depolar     --     0.0000                 0.0000                 0.0000
 Atom AN      X      Y      Z        X      Y      Z        X      Y      Z
   1   8     0.12   0.02  -0.08    -0.07   0.00   0.00     0.12  -0.13  -0.11
   2   6     0.01   0.02  -0.06    -0.17   0.06  -0.04    -0.05  -0.01  -0.18
   3   1    -0.01  -0.01  -0.02    -0.08  -0.02  -0.00    -0.04  -0.03  -0.08
   4   1    -0.00   0.02  -0.00    -0.07   0.05  -0.03    -0.03   0.01  -0.06
   5   6    -0.02   0.04  -0.04    -0.04   0.14  -0.05    -0.06   0.16  -0.13
   6   1     0.02   0.03  -0.01     0.05   0.08  -0.01     0.01   0.06  -0.01
   7   1    -0.03   0.03  -0.01    -0.06   0.08  -0.02    -0.04   0.08  -0.06
   8   7    -0.03  -0.07  -0.09     0.04  -0.10  -0.03    -0.06   0.15  -0.14
   9   6     0.00   0.04  -0.04     0.18   0.06   0.00    -0.05   0.14  -0.13
  10   1    -0.02   0.04  -0.02     0.02   0.07  -0.01    -0.02   0.04  -0.04
  11   1     0.00   0.00  -0.01     0.07  -0.01   0.01    -0.01   0.04  -0.04
  12   1     0.03   0.02   0.01     0.10   0.04   0.01    -0.01   0.04  -0.04
  13   6    -0.18  -0.13  -0.15    -0.23  -0.23  -0.06    -0.06   0.12  -0.10
  14   1    -0.05  -0.05  -0.05    -0.09  -0.09  -0.02    -0.00   0.05  -0.03
  15   1    -0.05  -0.06  -0.05    -0.06  -0.12  -0.02    -0.03   0.03  -0.04
  16   1    -0.08  -0.01  -0.04    -0.11  -0.03  -0.01    -0.02   0.03  -0.01
  17   6     0.11  -0.21  -0.09     0.23  -0.34   0.02    -0.04   0.12  -0.13
  18   1     0.04  -0.08  -0.03     0.09  -0.14   0.01    -0.01   0.03  -0.04
  19   1     0.02  -0.08  -0.03     0.03  -0.13   0.00    -0.01   0.03  -0.04
  20   1     0.07  -0.04  -0.01     0.12  -0.07   0.01    -0.01   0.04  -0.04
  21   1     0.04  -0.01  -0.04    -0.01  -0.02  -0.01     0.03  -0.07  -0.02
  22   6     0.05   0.02   0.07    -0.02   0.03   0.04     0.08  -0.06  -0.05
  23   8     0.09   0.03   0.08    -0.13   0.14  -0.03     0.24  -0.12  -0.03
  24   7    -0.19   0.16   0.01     0.12  -0.03   0.14    -0.09   0.03  -0.10
  25   1    -0.05   0.05   0.00     0.03  -0.00   0.04     0.03  -0.01  -0.01
  26   1    -0.02   0.02   0.02     0.06  -0.03   0.05    -0.00  -0.01  -0.02
  27   7     0.29  -0.11   0.16    -0.02  -0.01   0.04     0.06  -0.06  -0.07
  28   1     0.03  -0.01   0.02     0.03  -0.02   0.03    -0.00  -0.01  -0.03
  29   1     0.05  -0.01   0.03    -0.02   0.00   0.00     0.03  -0.03  -0.00
  30   6    -0.03  -0.05   0.17    -0.04   0.03  -0.10    -0.07  -0.00   0.07
  31   8     0.06  -0.07   0.29    -0.01   0.04  -0.08    -0.11  -0.15   0.09
  32   7    -0.13   0.03   0.23     0.01   0.16  -0.05    -0.17   0.04   0.11
  33   1    -0.02   0.02   0.09     0.02   0.06   0.01    -0.07  -0.01   0.04
  34   1    -0.05   0.01   0.04    -0.00   0.04  -0.02    -0.05   0.04   0.03
  35   7    -0.09  -0.12   0.03    -0.15  -0.10  -0.20     0.03   0.12   0.04
  36   1    -0.04  -0.02  -0.00    -0.04  -0.02  -0.05     0.02   0.06   0.01
  37   1     0.00  -0.03   0.01    -0.03  -0.01  -0.04     0.02   0.02   0.00
  38   6    -0.06   0.13  -0.01     0.06  -0.01  -0.01     0.06  -0.04   0.08
  39   8    -0.15   0.18  -0.13     0.07  -0.07   0.09     0.25  -0.07   0.23
  40   7     0.10   0.16   0.17    -0.04  -0.06  -0.20    -0.05  -0.06  -0.03
  41   1     0.01   0.05   0.04    -0.00  -0.04  -0.05     0.01  -0.02   0.01
  42   1     0.02   0.04   0.05     0.01  -0.01  -0.06    -0.04  -0.01  -0.03
  43   7    -0.14   0.09  -0.07     0.16   0.07   0.06    -0.03  -0.04   0.01
  44   1    -0.01   0.02   0.02     0.03   0.03  -0.01    -0.04  -0.01  -0.02
  45   1    -0.02   0.02  -0.02     0.03   0.03   0.02     0.02  -0.02   0.01
  46   6     0.05  -0.04  -0.10    -0.00   0.06   0.11     0.01  -0.05   0.14
  47   8     0.12  -0.04  -0.12    -0.07   0.01   0.09     0.05  -0.22   0.03
  48   7     0.14  -0.04  -0.14    -0.01   0.05   0.18    -0.07  -0.06   0.36
  49   1     0.02  -0.01  -0.04    -0.00   0.01   0.05     0.01  -0.04   0.10
  50   1    -0.00  -0.01  -0.03     0.02   0.02   0.05     0.00   0.01   0.11
  51   7    -0.11  -0.04  -0.08     0.09   0.12   0.07     0.02   0.14   0.07
  52   1    -0.03  -0.01  -0.02     0.02   0.04   0.03    -0.02   0.08   0.04
  53   1    -0.03  -0.01  -0.02     0.01   0.03   0.01     0.00   0.04  -0.03
                     16                     17                     18
                        a                      a                      a 
 Frequencies --   109.3591               110.9409               114.2519
 Red. masses --    11.3723                12.6607                12.2484
 Frc consts  --     0.0000                 0.0000                 0.0000
 IR Inten    --     1.0132                12.6473                 8.7793
 Raman Activ --     0.0000                 0.0000                 0.0000
 Depolar     --     0.0000                 0.0000                 0.0000
 Atom AN      X      Y      Z        X      Y      Z        X      Y      Z
   1   8     0.13  -0.24   0.19     0.15  -0.14   0.07    -0.12  -0.10   0.01
   2   6    -0.09  -0.03  -0.02    -0.05  -0.02  -0.02    -0.16   0.01  -0.10
   3   1    -0.07  -0.06  -0.02    -0.04  -0.04  -0.04    -0.07  -0.02  -0.03
   4   1    -0.06   0.04  -0.03    -0.02   0.02   0.00    -0.07   0.02  -0.05
   5   6     0.01   0.20   0.02    -0.11   0.12   0.03    -0.05   0.12  -0.09
   6   1     0.06   0.09   0.03     0.00   0.05   0.04     0.01   0.05  -0.02
   7   1    -0.05   0.10  -0.01    -0.07   0.07   0.01    -0.03   0.06  -0.04
   8   7     0.04   0.03   0.01    -0.15   0.04  -0.04     0.01   0.03  -0.04
   9   6     0.07  -0.25  -0.15    -0.17  -0.04  -0.07     0.08  -0.13  -0.15
  10   1     0.05  -0.12  -0.03    -0.04  -0.02  -0.01     0.04  -0.07  -0.04
  11   1     0.03  -0.09  -0.03    -0.05  -0.01  -0.02     0.03  -0.05  -0.03
  12   1    -0.01  -0.07  -0.11    -0.06  -0.01  -0.03     0.00  -0.04  -0.08
  13   6     0.08  -0.03   0.27    -0.18   0.00   0.01     0.06   0.00   0.14
  14   1     0.02   0.04   0.11    -0.02   0.02   0.00     0.02   0.03   0.06
  15   1     0.02  -0.04   0.07    -0.06  -0.02  -0.02     0.02  -0.01   0.03
  16   1     0.03  -0.05   0.11    -0.06  -0.01   0.03     0.03  -0.03   0.06
  17   6    -0.01   0.18  -0.13    -0.10   0.06  -0.13    -0.05   0.12  -0.06
  18   1     0.01   0.01  -0.04    -0.04   0.01  -0.05     0.00   0.01  -0.01
  19   1    -0.01   0.10  -0.00    -0.01   0.03  -0.04    -0.03   0.06   0.01
  20   1    -0.01   0.07  -0.10    -0.02   0.02  -0.04    -0.02   0.04  -0.06
  21   1     0.05  -0.07  -0.02     0.05  -0.05  -0.02    -0.03  -0.03   0.00
  22   6    -0.03   0.06   0.03    -0.09   0.07   0.00     0.04  -0.08  -0.01
  23   8     0.02   0.13  -0.03    -0.45   0.10   0.02    -0.10  -0.03  -0.05
  24   7     0.04   0.05   0.18     0.18  -0.11  -0.10    -0.01  -0.06  -0.05
  25   1     0.05   0.02   0.07    -0.10   0.01  -0.09    -0.01  -0.02  -0.02
  26   1     0.01  -0.01   0.07     0.00   0.03  -0.07     0.07  -0.05   0.00
  27   7    -0.15   0.02  -0.03     0.11   0.13   0.09     0.26  -0.16   0.09
  28   1    -0.05  -0.01   0.01     0.08   0.03   0.03     0.06  -0.03   0.01
  29   1    -0.04   0.01  -0.02     0.03   0.04   0.04     0.05  -0.03   0.01
  30   6     0.01  -0.01  -0.06     0.08  -0.03   0.12    -0.03  -0.01  -0.03
  31   8     0.05  -0.08  -0.01     0.10   0.17   0.10    -0.04  -0.16   0.00
  32   7    -0.03   0.10  -0.00     0.15  -0.20   0.04    -0.11   0.09   0.03
  33   1    -0.01   0.03   0.03     0.07  -0.04  -0.02    -0.05   0.01   0.03
  34   1    -0.02   0.04  -0.01     0.04  -0.10   0.02    -0.03   0.06   0.00
  35   7    -0.02  -0.06  -0.18     0.02  -0.10   0.25     0.03   0.06  -0.10
  36   1    -0.00   0.00  -0.05    -0.02  -0.07   0.07     0.01   0.03  -0.03
  37   1     0.02  -0.00  -0.04    -0.03  -0.03   0.07     0.01   0.00  -0.04
  38   6    -0.08   0.05   0.06     0.11  -0.01  -0.05     0.02  -0.01  -0.05
  39   8    -0.26  -0.01   0.09     0.22   0.00  -0.01     0.04   0.04  -0.14
  40   7     0.03  -0.00   0.00    -0.02  -0.00  -0.14    -0.01   0.03   0.05
  41   1    -0.01  -0.03  -0.01     0.01   0.00  -0.02    -0.00   0.03   0.01
  42   1     0.04   0.01  -0.00    -0.00  -0.00  -0.03    -0.01  -0.00   0.03
  43   7    -0.02   0.17   0.12     0.13  -0.02  -0.04     0.03  -0.10  -0.05
  44   1     0.02   0.06   0.03     0.01  -0.00  -0.03     0.00  -0.04  -0.00
  45   1    -0.02   0.05   0.03     0.01   0.00  -0.01     0.00  -0.03  -0.03
  46   6     0.05  -0.07  -0.09     0.04   0.00  -0.02     0.02   0.10   0.14
  47   8     0.22  -0.14  -0.17     0.17   0.00  -0.05     0.01   0.35   0.34
  48   7     0.02  -0.07  -0.01    -0.03   0.00  -0.02     0.05   0.12  -0.15
  49   1    -0.01  -0.03   0.00     0.02  -0.00  -0.01     0.01   0.07  -0.06
  50   1    -0.07  -0.01   0.02    -0.03   0.00  -0.00     0.02  -0.01  -0.07
  51   7    -0.07   0.01  -0.11    -0.04  -0.00  -0.01     0.03  -0.20   0.29
  52   1    -0.04   0.02  -0.02    -0.04   0.00  -0.00     0.01  -0.11   0.04
  53   1     0.00   0.01  -0.05    -0.00   0.00  -0.01     0.00  -0.06   0.15
                     19                     20                     21
                        a                      a                      a 
 Frequencies --   119.9713               130.8293               150.7984
 Red. masses --    13.1564                12.3165                11.0008
 Frc consts  --     0.0000                 0.0000                 0.0000
 IR Inten    --    14.2297                18.6921                 4.8221
 Raman Activ --     0.0000                 0.0000                 0.0000
 Depolar     --     0.0000                 0.0000                 0.0000
 Atom AN      X      Y      Z        X      Y      Z        X      Y      Z
   1   8    -0.00   0.07  -0.10     0.06   0.07  -0.07    -0.20  -0.06   0.31
   2   6     0.14  -0.03  -0.03    -0.12  -0.00   0.06     0.31  -0.00   0.07
   3   1     0.07   0.03  -0.00    -0.05  -0.02   0.02     0.17   0.10  -0.00
   4   1     0.07  -0.04   0.00    -0.04   0.03   0.05     0.15  -0.13  -0.01
   5   6     0.06  -0.12  -0.03    -0.18  -0.11   0.04     0.15   0.13   0.14
   6   1    -0.03  -0.06  -0.01    -0.08  -0.05  -0.00     0.08   0.06   0.09
   7   1     0.06  -0.07  -0.01    -0.02  -0.06   0.02    -0.01   0.07   0.05
   8   7     0.03   0.07  -0.01    -0.21  -0.02   0.05     0.02   0.02  -0.08
   9   6    -0.03   0.13   0.05    -0.18   0.00   0.06    -0.14  -0.10  -0.07
  10   1    -0.02   0.05   0.02    -0.05   0.00   0.01    -0.04  -0.06   0.01
  11   1    -0.02   0.04   0.00    -0.05   0.01   0.02    -0.06  -0.02  -0.04
  12   1    -0.00   0.04   0.03    -0.06  -0.00   0.02    -0.06  -0.04  -0.03
  13   6     0.13   0.15  -0.10    -0.11   0.04   0.01    -0.07  -0.03  -0.07
  14   1     0.03   0.02  -0.04    -0.04   0.00  -0.00     0.02   0.01  -0.02
  15   1     0.04   0.07  -0.01    -0.02   0.03   0.02    -0.05  -0.03  -0.07
  16   1     0.06   0.05  -0.06    -0.01   0.01  -0.02    -0.05  -0.02   0.03
  17   6    -0.04   0.10   0.05    -0.24   0.01   0.09     0.12   0.07  -0.28
  18   1    -0.02   0.06   0.02    -0.09   0.05   0.02     0.06  -0.07  -0.09
  19   1     0.00   0.02   0.00    -0.04  -0.01   0.00    -0.00   0.07  -0.03
  20   1    -0.03   0.01   0.04    -0.09  -0.02   0.06     0.07   0.07  -0.16
  21   1    -0.01   0.03   0.00     0.01  -0.02  -0.00    -0.05   0.06   0.08
  22   6    -0.11   0.03   0.03     0.05  -0.11  -0.05    -0.03  -0.09  -0.00
  23   8    -0.42   0.20  -0.09     0.12  -0.03  -0.16    -0.00  -0.06  -0.04
  24   7     0.10  -0.07   0.11    -0.05  -0.04   0.05    -0.06  -0.07   0.04
  25   1    -0.03   0.01   0.01    -0.06   0.04   0.00    -0.01  -0.01   0.02
  26   1     0.07  -0.04   0.04    -0.06  -0.01   0.02    -0.02  -0.03   0.02
  27   7     0.06  -0.07   0.09     0.15  -0.31  -0.03    -0.03  -0.14  -0.00
  28   1     0.05  -0.03   0.04     0.02  -0.09  -0.01    -0.01  -0.04  -0.00
  29   1    -0.02   0.00   0.02     0.02  -0.07  -0.03    -0.02  -0.03  -0.01
  30   6    -0.01  -0.17   0.02     0.16   0.01  -0.08     0.04   0.02   0.01
  31   8    -0.03  -0.50   0.09     0.32   0.12   0.00     0.11   0.06   0.06
  32   7    -0.08   0.11   0.19     0.07  -0.03  -0.12    -0.03  -0.01  -0.00
  33   1    -0.06   0.00   0.09     0.04   0.02  -0.01     0.00   0.01   0.01
  34   1    -0.03   0.08   0.04     0.00  -0.03  -0.05    -0.02  -0.01  -0.01
  35   7     0.08  -0.09  -0.15     0.12  -0.07  -0.21     0.03  -0.01  -0.04
  36   1     0.03   0.02  -0.05    -0.01  -0.04  -0.07    -0.01  -0.01  -0.02
  37   1     0.03  -0.04  -0.05     0.05  -0.01  -0.05     0.01  -0.00  -0.01
  38   6     0.03   0.04  -0.01    -0.01   0.10  -0.04     0.03   0.07  -0.08
  39   8    -0.04  -0.00   0.02    -0.20   0.06  -0.08     0.01   0.11  -0.16
  40   7     0.03  -0.00  -0.11     0.10   0.06  -0.07     0.03   0.11   0.00
  41   1     0.00  -0.02  -0.04     0.01  -0.01  -0.04    -0.01   0.05  -0.01
  42   1     0.03   0.01  -0.03     0.07   0.02  -0.02    -0.00   0.02   0.01
  43   7     0.14   0.12   0.07     0.09   0.17   0.03     0.07   0.00  -0.05
  44   1     0.03   0.04  -0.00     0.05   0.05   0.02     0.03  -0.01   0.01
  45   1    -0.01   0.05   0.00     0.01   0.05  -0.00     0.02  -0.00  -0.03
  46   6    -0.02  -0.01  -0.02     0.04   0.02   0.13    -0.10  -0.01   0.06
  47   8    -0.07  -0.06  -0.05     0.09  -0.06   0.08    -0.35  -0.08   0.06
  48   7     0.01  -0.01   0.03     0.01   0.01   0.20    -0.01  -0.02   0.14
  49   1    -0.01  -0.01   0.01    -0.00   0.00   0.06    -0.01  -0.01   0.04
  50   1     0.01   0.01   0.01    -0.01   0.01   0.06     0.07   0.00   0.03
  51   7     0.02   0.05  -0.06    -0.01   0.10   0.11     0.07   0.08  -0.00
  52   1     0.01   0.03  -0.01     0.00   0.04   0.04     0.05   0.03   0.01
  53   1    -0.00   0.02  -0.03     0.02   0.03   0.01    -0.02   0.02  -0.01
                     22                     23                     24
                        a                      a                      a 
 Frequencies --   157.6974               175.5976               177.3001
 Red. masses --    12.6001                12.4669                13.2217
 Frc consts  --     0.0000                 0.0000                 0.0000
 IR Inten    --    18.5353                32.1884                11.9598
 Raman Activ --     0.0000                 0.0000                 0.0000
 Depolar     --     0.0000                 0.0000                 0.0000
 Atom AN      X      Y      Z        X      Y      Z        X      Y      Z
   1   8    -0.02  -0.02   0.07     0.12  -0.01  -0.04    -0.05  -0.00  -0.01
   2   6     0.10  -0.02   0.04    -0.07  -0.00   0.02     0.01  -0.01  -0.01
   3   1     0.06   0.03  -0.01    -0.05  -0.03   0.00     0.01   0.01  -0.00
   4   1     0.06  -0.05   0.02    -0.04   0.04   0.02     0.01  -0.01  -0.01
   5   6    -0.04   0.01   0.07    -0.05  -0.03   0.00     0.00  -0.01  -0.01
   6   1    -0.01   0.00   0.04    -0.02  -0.01  -0.01     0.00  -0.00  -0.00
   7   1    -0.03   0.01   0.03    -0.01  -0.01   0.00     0.00  -0.00  -0.00
   8   7    -0.12   0.02  -0.04    -0.03  -0.02   0.04     0.00  -0.00  -0.02
   9   6    -0.19   0.06   0.01     0.01  -0.01   0.02     0.00   0.02  -0.00
  10   1    -0.06   0.02   0.01     0.00  -0.00   0.00    -0.00   0.01  -0.00
  11   1    -0.06   0.02  -0.01     0.01  -0.01   0.01    -0.00   0.01  -0.00
  12   1    -0.05   0.02   0.02     0.01  -0.00   0.00     0.00   0.01   0.01
  13   6    -0.15   0.02  -0.12    -0.00  -0.00   0.04    -0.01  -0.01  -0.02
  14   1    -0.03  -0.00  -0.04     0.00   0.00   0.01     0.00   0.00  -0.01
  15   1    -0.05   0.01  -0.05     0.00   0.00   0.02    -0.01  -0.00  -0.01
  16   1    -0.06   0.01  -0.02     0.01  -0.00   0.01    -0.01  -0.00  -0.00
  17   6    -0.05  -0.00  -0.09    -0.05  -0.01   0.06     0.01  -0.02  -0.01
  18   1    -0.02  -0.02  -0.04    -0.02   0.02   0.02     0.01  -0.01  -0.00
  19   1    -0.01   0.00  -0.03    -0.00  -0.01   0.00     0.00  -0.01  -0.00
  20   1    -0.00   0.01  -0.03    -0.02  -0.02   0.04     0.01  -0.00  -0.00
  21   1    -0.00   0.02   0.02     0.03  -0.03  -0.02    -0.01   0.01  -0.00
  22   6     0.09   0.12   0.03    -0.12  -0.02   0.09    -0.08  -0.18   0.00
  23   8     0.08   0.15   0.04    -0.06   0.05   0.02     0.02  -0.17  -0.07
  24   7     0.09   0.15   0.08    -0.06  -0.01   0.30    -0.11  -0.18   0.08
  25   1     0.01   0.06   0.02     0.02   0.02   0.10    -0.03  -0.02   0.02
  26   1     0.01   0.04   0.02    -0.04  -0.03   0.11    -0.08  -0.04   0.02
  27   7     0.12   0.11   0.05    -0.25  -0.06   0.01    -0.16  -0.23  -0.05
  28   1     0.02   0.03   0.01    -0.07  -0.03   0.01    -0.03  -0.07  -0.01
  29   1     0.05   0.02   0.02    -0.06  -0.03  -0.02    -0.03  -0.07  -0.00
  30   6     0.11   0.03  -0.10     0.04   0.01  -0.06    -0.01   0.01   0.01
  31   8     0.29  -0.01   0.03     0.11  -0.05  -0.01    -0.02   0.04  -0.00
  32   7    -0.08   0.08  -0.07    -0.06   0.06  -0.04     0.01  -0.02  -0.01
  33   1    -0.01   0.03   0.03    -0.01   0.02   0.02     0.01  -0.00  -0.01
  34   1    -0.04   0.04  -0.05    -0.02   0.04  -0.02     0.01  -0.01   0.00
  35   7     0.12  -0.01  -0.31     0.05  -0.00  -0.17    -0.02   0.00   0.04
  36   1     0.00  -0.00  -0.10     0.01   0.01  -0.05    -0.00   0.00   0.01
  37   1     0.06   0.01  -0.08     0.03   0.01  -0.03    -0.01  -0.00   0.01
  38   6    -0.04  -0.17   0.17     0.12   0.02  -0.07     0.13   0.19   0.13
  39   8     0.12  -0.20   0.30     0.43   0.21  -0.20     0.29   0.14   0.44
  40   7    -0.13  -0.19   0.09    -0.17   0.23   0.20    -0.02   0.16  -0.13
  41   1     0.01  -0.06   0.06    -0.02   0.16   0.09     0.08   0.01   0.04
  42   1    -0.05  -0.05   0.01    -0.12   0.01   0.11     0.03   0.05  -0.03
  43   7    -0.17  -0.13   0.09     0.02  -0.30  -0.16     0.02   0.37   0.09
  44   1    -0.07  -0.03  -0.01    -0.04  -0.11  -0.03    -0.07   0.11  -0.06
  45   1    -0.04  -0.04   0.04     0.03  -0.10  -0.06     0.01   0.10   0.02
  46   6    -0.03  -0.00  -0.08     0.03  -0.02  -0.03    -0.00  -0.02  -0.11
  47   8    -0.06   0.12   0.00     0.09  -0.07  -0.07     0.01   0.13  -0.03
  48   7    -0.01   0.01  -0.20    -0.04  -0.02   0.03    -0.00  -0.00  -0.25
  49   1     0.00   0.01  -0.06     0.05  -0.00  -0.00     0.01   0.01  -0.07
  50   1     0.01  -0.01  -0.06     0.04   0.00   0.00     0.00  -0.01  -0.08
  51   7    -0.01  -0.14  -0.02    -0.02   0.05  -0.05    -0.01  -0.20  -0.04
  52   1     0.00  -0.07  -0.03    -0.03   0.03  -0.00    -0.01  -0.09  -0.03
  53   1    -0.01  -0.04   0.03    -0.01   0.01  -0.03    -0.01  -0.06   0.03
                     25                     26                     27
                        a                      a                      a 
 Frequencies --   206.1037               214.7946               235.6692
 Red. masses --     5.5498                11.3940                13.4044
 Frc consts  --     0.0000                 0.0000                 0.0000
 IR Inten    --   109.5905               102.2906                68.4363
 Raman Activ --     0.0000                 0.0000                 0.0000
 Depolar     --     0.0000                 0.0000                 0.0000
 Atom AN      X      Y      Z        X      Y      Z        X      Y      Z
   1   8     0.01   0.01   0.01    -0.26   0.06   0.07    -0.57   0.13   0.16
   2   6    -0.01   0.00   0.02    -0.02   0.03   0.01    -0.03   0.08   0.01
   3   1    -0.01  -0.00   0.01     0.02   0.04   0.02     0.06   0.10   0.03
   4   1    -0.00   0.01   0.01     0.01  -0.03  -0.01     0.02  -0.06  -0.03
   5   6    -0.02  -0.03   0.01     0.01  -0.03  -0.02     0.01  -0.03  -0.05
   6   1    -0.01  -0.01  -0.00    -0.01  -0.02  -0.02    -0.02  -0.02  -0.04
   7   1    -0.00  -0.02   0.01     0.02  -0.02   0.00     0.03  -0.03   0.00
   8   7    -0.03  -0.01   0.00     0.00  -0.01  -0.03     0.00  -0.01  -0.08
   9   6    -0.03  -0.01   0.01    -0.01  -0.01  -0.02    -0.00   0.01  -0.06
  10   1    -0.00  -0.00  -0.01     0.00  -0.01  -0.01     0.00  -0.00  -0.02
  11   1    -0.00   0.01   0.01     0.00   0.00  -0.00    -0.00   0.01  -0.02
  12   1    -0.02  -0.01   0.00    -0.01  -0.01  -0.01    -0.01  -0.00  -0.02
  13   6    -0.02  -0.00  -0.02     0.01   0.00  -0.05     0.02   0.01  -0.12
  14   1    -0.02  -0.01  -0.01    -0.02  -0.01  -0.01     0.01  -0.01  -0.04
  15   1     0.01   0.01   0.01     0.02   0.01   0.00     0.01   0.01  -0.03
  16   1     0.00   0.01  -0.03     0.01   0.01  -0.04     0.01   0.01  -0.04
  17   6    -0.03  -0.01   0.00    -0.01  -0.01  -0.02    -0.02  -0.02  -0.03
  18   1     0.01  -0.02   0.01     0.01  -0.02   0.00     0.01  -0.01   0.01
  19   1    -0.02   0.01   0.01    -0.02   0.01   0.01    -0.02  -0.00   0.00
  20   1    -0.01   0.01  -0.02    -0.00   0.01  -0.03    -0.01   0.00  -0.03
  21   1     0.01   0.01  -0.01    -0.07   0.06   0.01    -0.15   0.12   0.04
  22   6    -0.01  -0.08   0.09     0.06   0.11  -0.19    -0.03  -0.02   0.08
  23   8    -0.13  -0.15   0.18    -0.01   0.32  -0.40    -0.01  -0.10   0.17
  24   7    -0.29   0.04  -0.23    -0.04   0.24   0.09     0.04  -0.09  -0.02
  25   1     0.40  -0.30   0.11     0.20   0.03   0.12    -0.09   0.00  -0.05
  26   1     0.51  -0.28   0.11     0.24  -0.14   0.18    -0.12   0.07  -0.07
  27   7    -0.04   0.14   0.12     0.03  -0.18  -0.26    -0.03   0.10   0.10
  28   1    -0.06   0.09  -0.03    -0.02  -0.08  -0.04    -0.01   0.03   0.02
  29   1    -0.07   0.08   0.03    -0.02  -0.04  -0.12     0.01   0.02   0.05
  30   6     0.06   0.05  -0.00     0.00  -0.05   0.12     0.00   0.01  -0.05
  31   8     0.13   0.04   0.04    -0.06   0.05   0.06     0.02  -0.03  -0.02
  32   7    -0.08  -0.03  -0.05     0.11  -0.14   0.06    -0.05   0.06  -0.02
  33   1     0.02   0.03   0.03     0.06  -0.01  -0.00    -0.03   0.00   0.00
  34   1     0.01   0.05   0.02     0.07  -0.04   0.06    -0.03   0.01  -0.02
  35   7     0.09   0.05  -0.08    -0.08  -0.10   0.19     0.03   0.03  -0.07
  36   1    -0.02  -0.02  -0.04    -0.00  -0.02   0.06     0.01   0.01  -0.02
  37   1     0.01   0.01  -0.03    -0.01   0.00   0.08     0.01   0.00  -0.02
  38   6     0.03   0.03  -0.02    -0.02  -0.04   0.05     0.02   0.01  -0.01
  39   8     0.01   0.01   0.00     0.04  -0.02   0.05     0.02   0.01  -0.02
  40   7     0.05  -0.00  -0.08    -0.09  -0.01   0.07     0.01   0.01  -0.02
  41   1     0.00  -0.02  -0.03     0.02   0.01   0.06     0.00   0.00  -0.01
  42   1     0.01   0.01  -0.04     0.01  -0.02   0.06     0.00   0.00  -0.01
  43   7     0.05   0.06  -0.00    -0.02  -0.07   0.04     0.00  -0.00  -0.02
  44   1     0.01   0.02  -0.01    -0.04  -0.02  -0.02     0.01  -0.00   0.01
  45   1     0.00   0.02   0.00    -0.03  -0.03  -0.02     0.02   0.00   0.01
  46   6     0.02  -0.00  -0.01     0.06  -0.01   0.01     0.19  -0.04  -0.00
  47   8     0.06  -0.00  -0.02     0.17  -0.01   0.00     0.54  -0.09  -0.07
  48   7     0.00  -0.00  -0.00    -0.01  -0.01   0.02     0.01  -0.05   0.10
  49   1     0.01  -0.00  -0.00     0.02  -0.00   0.00     0.02  -0.03   0.03
  50   1    -0.01   0.00   0.00    -0.01  -0.00   0.01    -0.11  -0.00   0.06
  51   7     0.01   0.01  -0.01     0.01  -0.04   0.05    -0.06  -0.03   0.05
  52   1    -0.03   0.01   0.00    -0.05  -0.01   0.01    -0.05   0.00   0.02
  53   1    -0.01   0.00  -0.01     0.00  -0.01   0.02     0.08  -0.00  -0.00
                     28                     29                     30
                        a                      a                      a 
 Frequencies --   264.9728               271.4222               282.3332
 Red. masses --     2.7952                 7.4769                 3.2021
 Frc consts  --     0.0000                 0.0000                 0.0000
 IR Inten    --   193.4188                15.4903                53.3537
 Raman Activ --     0.0000                 0.0000                 0.0000
 Depolar     --     0.0000                 0.0000                 0.0000
 Atom AN      X      Y      Z        X      Y      Z        X      Y      Z
   1   8    -0.02   0.00   0.00    -0.03   0.02  -0.22    -0.01  -0.01   0.04
   2   6    -0.02   0.00   0.01     0.38  -0.09  -0.18     0.16   0.01  -0.05
   3   1    -0.01  -0.00   0.01     0.24   0.12  -0.13     0.09   0.06  -0.04
   4   1    -0.01   0.01   0.00     0.23  -0.20  -0.00     0.09  -0.06  -0.00
   5   6    -0.00  -0.01  -0.00    -0.12   0.08  -0.01    -0.03   0.04  -0.01
   6   1    -0.00  -0.00  -0.00     0.00   0.04   0.08    -0.00   0.02   0.01
   7   1    -0.00  -0.00  -0.00    -0.08   0.07  -0.01    -0.02   0.02   0.01
   8   7    -0.00  -0.01  -0.00    -0.12   0.03   0.05    -0.05   0.00  -0.02
   9   6    -0.01  -0.00   0.00     0.24   0.03  -0.08     0.12  -0.01  -0.10
  10   1     0.00  -0.00  -0.00     0.14  -0.01  -0.10    -0.03   0.05   0.00
  11   1    -0.00   0.01   0.00     0.13   0.04   0.06     0.05  -0.11  -0.04
  12   1    -0.01  -0.01   0.00     0.01  -0.01  -0.06     0.13   0.05  -0.06
  13   6     0.01   0.00  -0.01    -0.24  -0.10   0.24    -0.09  -0.05   0.05
  14   1     0.02   0.01  -0.00    -0.05   0.01   0.08    -0.13  -0.07   0.02
  15   1    -0.01   0.00  -0.02    -0.08  -0.09   0.03     0.04  -0.03   0.11
  16   1    -0.00  -0.01   0.01    -0.10  -0.04   0.13     0.00   0.04  -0.08
  17   6     0.01  -0.01  -0.00    -0.20   0.00   0.21    -0.13   0.02   0.08
  18   1     0.00  -0.01  -0.00    -0.02  -0.01   0.10    -0.08   0.11   0.02
  19   1     0.00  -0.00   0.00    -0.10   0.01   0.09     0.02  -0.03  -0.03
  20   1     0.00  -0.00  -0.00    -0.07   0.01   0.03    -0.08  -0.05   0.11
  21   1    -0.00   0.00  -0.00    -0.04   0.02   0.06    -0.00   0.04  -0.01
  22   6    -0.01  -0.00  -0.02     0.00   0.00  -0.00     0.01  -0.00   0.01
  23   8    -0.02   0.02  -0.05    -0.00   0.01  -0.01     0.01  -0.02   0.03
  24   7     0.00   0.00   0.02     0.00   0.01   0.01    -0.00  -0.00  -0.01
  25   1    -0.00   0.01   0.01     0.02  -0.00   0.01    -0.02   0.01  -0.01
  26   1    -0.00  -0.01   0.01     0.03  -0.01   0.01    -0.03   0.02  -0.02
  27   7    -0.01  -0.03  -0.03     0.01  -0.01  -0.00     0.00   0.00   0.01
  28   1     0.01  -0.02   0.00    -0.02   0.01  -0.01     0.02  -0.00   0.01
  29   1     0.01  -0.01  -0.00     0.00  -0.00  -0.00    -0.01   0.01  -0.01
  30   6     0.00  -0.00   0.01    -0.01   0.00  -0.01    -0.01   0.00  -0.01
  31   8     0.00   0.01   0.01    -0.02   0.00  -0.01    -0.01   0.00  -0.01
  32   7     0.00  -0.01  -0.00     0.01  -0.00  -0.01     0.00   0.01  -0.01
  33   1     0.01   0.00   0.00     0.00   0.00  -0.01    -0.00   0.00  -0.00
  34   1     0.01   0.00   0.01     0.01   0.00   0.00    -0.00  -0.00  -0.00
  35   7    -0.00  -0.01   0.01    -0.01   0.01   0.01    -0.01   0.01   0.00
  36   1     0.00   0.00   0.00    -0.00   0.00   0.01     0.00   0.00   0.00
  37   1     0.00  -0.00   0.00    -0.01   0.00   0.00    -0.00  -0.00  -0.00
  38   6    -0.04   0.02  -0.01     0.00  -0.00  -0.01    -0.02  -0.01  -0.00
  39   8     0.05   0.00   0.07     0.01   0.00  -0.00    -0.05  -0.01  -0.01
  40   7     0.26  -0.04   0.21     0.01   0.00   0.02    -0.01  -0.01  -0.02
  41   1    -0.40   0.04  -0.33    -0.03   0.01  -0.02     0.03  -0.01   0.02
  42   1    -0.60   0.07  -0.44    -0.04   0.00  -0.02     0.06  -0.01   0.03
  43   7    -0.01   0.04   0.00     0.00  -0.01  -0.01    -0.00   0.02   0.01
  44   1     0.10   0.01   0.09     0.01  -0.00   0.00    -0.00   0.01  -0.01
  45   1     0.05   0.01   0.05     0.00  -0.00   0.00    -0.01   0.01   0.00
  46   6     0.01   0.00  -0.02     0.03  -0.01  -0.01    -0.00   0.01  -0.01
  47   8     0.03   0.03  -0.01     0.05  -0.00  -0.01     0.03  -0.00  -0.02
  48   7    -0.03   0.01  -0.01     0.02  -0.00  -0.01    -0.08  -0.00   0.02
  49   1     0.04  -0.00  -0.01    -0.04  -0.01   0.01     0.12   0.00  -0.02
  50   1     0.08   0.00  -0.02    -0.12  -0.00   0.02     0.34   0.01  -0.06
  51   7     0.02  -0.03   0.00    -0.11   0.01  -0.01     0.26  -0.01   0.01
  52   1    -0.07  -0.01  -0.00     0.21  -0.01  -0.01    -0.62   0.02   0.03
  53   1    -0.04  -0.01   0.01     0.15   0.01  -0.02    -0.37  -0.02   0.03
                     31                     32                     33
                        a                      a                      a 
 Frequencies --   288.6799               307.4597               329.2820
 Red. masses --     3.0493                 7.3762                 2.8399
 Frc consts  --     0.0000                 0.0000                 0.0000
 IR Inten    --    11.8493                 4.9147               156.6355
 Raman Activ --     0.0000                 0.0000                 0.0000
 Depolar     --     0.0000                 0.0000                 0.0000
 Atom AN      X      Y      Z        X      Y      Z        X      Y      Z
   1   8     0.04  -0.05   0.23    -0.16  -0.00  -0.36     0.00  -0.00  -0.02
   2   6     0.04   0.09   0.04    -0.01  -0.18  -0.11    -0.00  -0.02   0.01
   3   1     0.01   0.02  -0.00     0.03  -0.01  -0.02    -0.00  -0.01   0.01
   4   1     0.01   0.01  -0.01     0.02  -0.08  -0.02    -0.00  -0.00   0.01
   5   6     0.02   0.06  -0.01    -0.01  -0.07  -0.01    -0.01  -0.03   0.01
   6   1     0.01   0.02  -0.03    -0.01  -0.03   0.03    -0.01  -0.02   0.00
   7   1     0.00   0.00   0.03     0.02  -0.00  -0.05     0.01  -0.02   0.00
   8   7    -0.01  -0.03  -0.09     0.03   0.06   0.13    -0.02   0.00   0.01
   9   6     0.07  -0.07  -0.14    -0.15   0.07   0.21     0.01   0.02   0.01
  10   1    -0.21   0.12   0.11    -0.30   0.17   0.25    -0.02   0.02   0.01
  11   1    -0.01  -0.30  -0.15    -0.12  -0.23  -0.10     0.01  -0.02   0.00
  12   1     0.30   0.13  -0.09     0.25   0.16   0.07     0.03   0.02   0.00
  13   6     0.00  -0.03  -0.07    -0.04  -0.04   0.32    -0.03  -0.01   0.03
  14   1    -0.24  -0.15  -0.01    -0.04   0.02   0.12    -0.06  -0.03   0.01
  15   1     0.16   0.01   0.21     0.01  -0.07   0.10     0.02  -0.01   0.05
  16   1     0.09   0.12  -0.27    -0.02  -0.02   0.10     0.01   0.02  -0.03
  17   6    -0.13   0.02   0.02     0.21   0.11  -0.20     0.01   0.03  -0.05
  18   1    -0.14   0.21  -0.03     0.03  -0.05  -0.12     0.01  -0.02  -0.02
  19   1     0.10  -0.07  -0.11     0.08   0.08  -0.04    -0.01   0.03  -0.00
  20   1    -0.11  -0.11   0.20     0.11   0.08  -0.10     0.01   0.02  -0.04
  21   1     0.02   0.00   0.01    -0.06   0.00  -0.04     0.00   0.00  -0.00
  22   6     0.01  -0.00   0.00     0.00   0.00   0.00    -0.00  -0.00  -0.00
  23   8     0.01   0.00  -0.00     0.00  -0.00   0.01    -0.01  -0.01  -0.00
  24   7    -0.01   0.01  -0.02    -0.00   0.00   0.00    -0.03   0.01  -0.01
  25   1     0.01  -0.01  -0.00     0.00  -0.00   0.00     0.04  -0.02   0.01
  26   1     0.01  -0.00  -0.00    -0.00   0.00  -0.00     0.08  -0.05   0.03
  27   7     0.01  -0.01   0.00    -0.01   0.01  -0.00     0.00   0.00   0.00
  28   1     0.01  -0.01   0.01     0.00  -0.00   0.00    -0.02   0.01  -0.01
  29   1    -0.01   0.00  -0.00     0.00  -0.00  -0.00    -0.01   0.01  -0.01
  30   6    -0.01   0.00   0.01     0.01   0.02   0.01    -0.00  -0.02  -0.03
  31   8    -0.01   0.01   0.00     0.03   0.04   0.01     0.02   0.02  -0.01
  32   7    -0.01  -0.01  -0.01    -0.01  -0.03  -0.02     0.19   0.23   0.20
  33   1     0.01   0.01   0.01     0.03   0.03   0.02    -0.26  -0.25  -0.21
  34   1     0.02   0.02   0.02     0.03   0.03   0.03    -0.43  -0.54  -0.38
  35   7    -0.01   0.00   0.01     0.01   0.00  -0.01    -0.02  -0.03  -0.02
  36   1    -0.01  -0.00   0.00    -0.02  -0.02  -0.01     0.15   0.13   0.06
  37   1    -0.00  -0.00   0.00    -0.00  -0.00  -0.01     0.04   0.03   0.01
  38   6     0.02   0.01   0.00    -0.00   0.00  -0.01     0.01   0.00  -0.00
  39   8     0.05   0.01   0.02    -0.01   0.00  -0.01     0.01  -0.00   0.00
  40   7     0.01   0.01   0.01     0.00   0.01   0.01    -0.00   0.00   0.00
  41   1    -0.02   0.01  -0.02    -0.00   0.01  -0.00    -0.00   0.00  -0.00
  42   1    -0.05   0.01  -0.03    -0.00   0.00   0.00    -0.01   0.00  -0.01
  43   7    -0.00  -0.00  -0.01     0.00  -0.00  -0.00     0.00  -0.00  -0.00
  44   1     0.01  -0.00   0.01     0.00  -0.00   0.00     0.01  -0.00   0.00
  45   1     0.01  -0.00   0.00     0.00  -0.00  -0.00    -0.00   0.00  -0.00
  46   6    -0.02  -0.00   0.01     0.03   0.00  -0.00     0.01  -0.00  -0.00
  47   8    -0.07   0.00   0.02     0.08  -0.01  -0.01     0.01   0.00   0.00
  48   7     0.04  -0.00  -0.01    -0.00  -0.00   0.02    -0.01  -0.00   0.00
  49   1    -0.06  -0.00   0.01     0.01  -0.00   0.00     0.01   0.00  -0.00
  50   1    -0.15  -0.01   0.03     0.00   0.00   0.01     0.01  -0.00  -0.00
  51   7    -0.11   0.00  -0.01    -0.00  -0.01   0.01    -0.01  -0.00   0.00
  52   1     0.29  -0.01  -0.02    -0.02  -0.01   0.00     0.02  -0.00  -0.00
  53   1     0.15   0.01  -0.01     0.01  -0.00   0.01     0.01   0.00  -0.00
                     34                     35                     36
                        a                      a                      a 
 Frequencies --   349.3469               360.8748               377.7027
 Red. masses --     3.3664                 3.7984                 4.3897
 Frc consts  --     0.0000                 0.0000                 0.0000
 IR Inten    --     5.7394                 0.9097               191.2526
 Raman Activ --     0.0000                 0.0000                 0.0000
 Depolar     --     0.0000                 0.0000                 0.0000
 Atom AN      X      Y      Z        X      Y      Z        X      Y      Z
   1   8    -0.08   0.02  -0.07     0.09  -0.00   0.19    -0.01  -0.02   0.06
   2   6     0.03   0.03  -0.11    -0.01   0.07   0.10    -0.01  -0.00   0.05
   3   1     0.03   0.04  -0.07    -0.03  -0.01   0.04    -0.01  -0.01   0.03
   4   1     0.03  -0.03  -0.03    -0.02   0.05   0.02    -0.01   0.02   0.01
   5   6    -0.01   0.21  -0.01     0.00  -0.17  -0.03     0.01  -0.15  -0.02
   6   1     0.08   0.11   0.04    -0.07  -0.09  -0.08    -0.07  -0.09  -0.04
   7   1    -0.09   0.13  -0.02     0.07  -0.13   0.04     0.07  -0.10   0.00
   8   7     0.03  -0.03   0.01    -0.03  -0.05  -0.08    -0.01   0.03  -0.01
   9   6    -0.16  -0.15   0.03     0.23   0.11  -0.11     0.10   0.12  -0.01
  10   1    -0.10  -0.05   0.09    -0.13   0.20   0.05     0.10   0.02  -0.08
  11   1    -0.09  -0.09  -0.06     0.07  -0.21  -0.09     0.06   0.11   0.06
  12   1    -0.00  -0.02  -0.00     0.34   0.17  -0.05    -0.04  -0.00   0.02
  13   6     0.14   0.05  -0.02    -0.02  -0.04  -0.10    -0.13  -0.07   0.10
  14   1     0.32   0.16  -0.03     0.29   0.16  -0.04    -0.08  -0.02   0.05
  15   1    -0.14   0.05  -0.24    -0.20  -0.03  -0.30    -0.01  -0.07   0.04
  16   1    -0.03  -0.14   0.25    -0.12  -0.16   0.28    -0.05  -0.00   0.03
  17   6     0.04  -0.14   0.15    -0.20   0.06   0.00     0.03   0.10  -0.15
  18   1    -0.14   0.22  -0.02     0.02  -0.07   0.06    -0.06   0.08  -0.09
  19   1     0.21  -0.20  -0.16    -0.15   0.10   0.10     0.10   0.03  -0.09
  20   1    -0.04  -0.19   0.37    -0.08   0.06  -0.14    -0.01  -0.00   0.02
  21   1    -0.02   0.03  -0.04     0.03  -0.01   0.03     0.02   0.05  -0.08
  22   6     0.00  -0.01  -0.01    -0.01  -0.00  -0.01     0.02  -0.02   0.01
  23   8    -0.00  -0.01  -0.01    -0.01  -0.00  -0.01     0.01  -0.01  -0.01
  24   7    -0.03   0.02   0.01     0.01  -0.01   0.01    -0.02   0.01   0.01
  25   1     0.03  -0.01   0.02     0.01   0.00   0.01    -0.01   0.01   0.00
  26   1     0.05  -0.04   0.03     0.01  -0.01   0.01    -0.00  -0.00   0.01
  27   7    -0.05   0.03  -0.03     0.01   0.00   0.00    -0.03   0.02  -0.03
  28   1     0.06  -0.02   0.03    -0.03   0.02  -0.02     0.12  -0.04   0.05
  29   1     0.03  -0.02   0.03     0.01  -0.01   0.01     0.02  -0.01   0.03
  30   6     0.02   0.00   0.01     0.01   0.01   0.00     0.00  -0.00  -0.00
  31   8     0.03   0.01   0.01     0.01   0.02   0.00     0.00  -0.01  -0.00
  32   7     0.01   0.02   0.03    -0.02   0.00  -0.00    -0.01   0.00  -0.00
  33   1    -0.03  -0.02  -0.01    -0.00   0.01   0.01    -0.00   0.00   0.00
  34   1    -0.06  -0.06  -0.05    -0.01   0.00  -0.01     0.00   0.01   0.00
  35   7     0.01  -0.01  -0.02    -0.03  -0.01   0.02     0.00  -0.00  -0.00
  36   1     0.02   0.01   0.00     0.03   0.02   0.02     0.01   0.00   0.00
  37   1     0.01   0.00   0.00    -0.00   0.01   0.01     0.00   0.00   0.00
  38   6    -0.01  -0.00  -0.00    -0.01   0.00   0.00     0.03   0.01  -0.00
  39   8    -0.01   0.00  -0.01    -0.01  -0.00  -0.00     0.04   0.01   0.00
  40   7     0.01  -0.01  -0.00     0.00  -0.01  -0.00    -0.00   0.02   0.01
  41   1    -0.00  -0.01  -0.00     0.00  -0.01  -0.00    -0.01   0.01  -0.01
  42   1     0.01  -0.00   0.00     0.01  -0.00   0.00    -0.04   0.01  -0.02
  43   7     0.00  -0.00   0.01     0.00  -0.00   0.01    -0.01  -0.03  -0.03
  44   1    -0.01  -0.00  -0.00    -0.00  -0.00  -0.00     0.03  -0.01   0.03
  45   1    -0.00  -0.00  -0.01    -0.00  -0.00  -0.00     0.01  -0.01  -0.00
  46   6    -0.03   0.01   0.00    -0.01  -0.00   0.01    -0.14  -0.00   0.03
  47   8    -0.01  -0.00  -0.00    -0.02   0.00   0.01    -0.08  -0.02   0.01
  48   7     0.07   0.01  -0.01    -0.00  -0.00  -0.01     0.25   0.02  -0.06
  49   1    -0.04  -0.01   0.01    -0.01   0.00  -0.00    -0.11  -0.02   0.02
  50   1    -0.15   0.00   0.03     0.00  -0.00  -0.00    -0.67  -0.00   0.14
  51   7     0.06  -0.01   0.00     0.01   0.01  -0.00     0.23  -0.01   0.00
  52   1    -0.06   0.00   0.00    -0.01   0.01   0.00    -0.26   0.02   0.02
  53   1    -0.02  -0.00   0.00    -0.01   0.00  -0.00    -0.11  -0.01   0.00
                     37                     38                     39
                        a                      a                      a 
 Frequencies --   387.5372               428.7745               430.9373
 Red. masses --     4.3177                 7.5550                 4.1011
 Frc consts  --     0.0000                 0.0000                 0.0000
 IR Inten    --    85.1768                27.2788               137.6196
 Raman Activ --     0.0000                 0.0000                 0.0000
 Depolar     --     0.0000                 0.0000                 0.0000
 Atom AN      X      Y      Z        X      Y      Z        X      Y      Z
   1   8     0.06   0.03  -0.06     0.06  -0.05   0.22    -0.02   0.02  -0.09
   2   6     0.04   0.03  -0.08     0.09   0.14  -0.06    -0.04  -0.05   0.02
   3   1     0.03   0.03  -0.07     0.04   0.06  -0.05    -0.02  -0.03   0.02
   4   1     0.04  -0.03   0.00     0.06  -0.01  -0.01    -0.03   0.01  -0.01
   5   6    -0.10   0.16   0.02    -0.14  -0.07  -0.12     0.09   0.04   0.04
   6   1     0.05   0.10   0.04    -0.13  -0.07  -0.10     0.07   0.04   0.03
   7   1    -0.10   0.10   0.00     0.04  -0.11   0.02    -0.02   0.06  -0.01
   8   7    -0.06  -0.04   0.03    -0.19   0.04  -0.18     0.11  -0.04   0.06
   9   6    -0.13  -0.15   0.01    -0.11   0.20  -0.14     0.04  -0.08   0.07
  10   1    -0.14  -0.01   0.11    -0.03   0.08  -0.07    -0.01  -0.02   0.04
  11   1    -0.07  -0.16  -0.07    -0.02   0.08  -0.02    -0.00  -0.03   0.00
  12   1     0.07   0.02  -0.03    -0.02   0.05   0.00     0.02  -0.02   0.01
  13   6     0.20   0.13  -0.11     0.18   0.10   0.32    -0.08  -0.09  -0.16
  14   1     0.02  -0.02  -0.05     0.03   0.14   0.17     0.01  -0.06  -0.08
  15   1     0.09   0.13   0.05     0.08   0.04   0.14    -0.05  -0.04  -0.08
  16   1     0.14   0.06  -0.14     0.16  -0.09   0.09    -0.08   0.02  -0.03
  17   6    -0.06  -0.19   0.21     0.06  -0.32  -0.08    -0.06   0.16   0.05
  18   1     0.17  -0.30   0.18     0.04  -0.14  -0.02    -0.01   0.07   0.03
  19   1    -0.27   0.03   0.24    -0.01  -0.17  -0.05    -0.02   0.09   0.04
  20   1     0.06   0.10  -0.22     0.12  -0.05   0.03    -0.08   0.03  -0.03
  21   1    -0.00  -0.03   0.05     0.03   0.03  -0.01    -0.01  -0.02   0.01
  22   6     0.00  -0.01   0.00     0.02   0.00   0.01     0.01   0.02   0.01
  23   8    -0.00  -0.00  -0.01     0.01   0.01   0.00     0.03   0.02   0.00
  24   7     0.01  -0.01   0.01    -0.00   0.01   0.00     0.01   0.01   0.01
  25   1    -0.02   0.01  -0.00    -0.02   0.01  -0.01    -0.03   0.01  -0.01
  26   1    -0.02   0.01  -0.00     0.02  -0.01   0.01     0.03  -0.01   0.01
  27   7     0.00   0.00  -0.00    -0.03  -0.00  -0.02    -0.01  -0.03  -0.00
  28   1    -0.00   0.00  -0.00     0.01  -0.02   0.01    -0.03  -0.01  -0.01
  29   1     0.01  -0.00   0.01     0.02  -0.02   0.00    -0.01  -0.00  -0.02
  30   6     0.00   0.01  -0.00    -0.05  -0.03   0.00    -0.09  -0.05   0.01
  31   8     0.00   0.01  -0.00    -0.05  -0.00  -0.00    -0.09  -0.00  -0.01
  32   7     0.00   0.00  -0.01     0.06   0.03   0.05     0.11   0.07   0.10
  33   1     0.00   0.00  -0.00    -0.03  -0.04  -0.04    -0.06  -0.08  -0.07
  34   1    -0.01  -0.02  -0.01    -0.01  -0.05  -0.01    -0.02  -0.09  -0.02
  35   7    -0.01  -0.00   0.00     0.11   0.08  -0.01     0.21   0.15  -0.01
  36   1     0.02   0.02   0.01    -0.28  -0.26  -0.11    -0.54  -0.51  -0.21
  37   1     0.00  -0.00   0.00    -0.02   0.01  -0.01    -0.03   0.02  -0.01
  38   6     0.02   0.00   0.00    -0.00  -0.00  -0.01     0.04  -0.00   0.02
  39   8     0.02   0.00   0.01    -0.01  -0.01  -0.00     0.02  -0.01   0.02
  40   7    -0.00   0.01   0.00    -0.00   0.00   0.00    -0.04   0.01  -0.01
  41   1    -0.00   0.00  -0.00    -0.00   0.01   0.00     0.01   0.01   0.02
  42   1    -0.02   0.00  -0.01     0.00  -0.00   0.01    -0.01  -0.00   0.01
  43   7    -0.01  -0.01  -0.02    -0.00   0.00  -0.01    -0.05   0.00  -0.06
  44   1     0.02  -0.01   0.02     0.02   0.00   0.01     0.16   0.01   0.13
  45   1     0.01  -0.01   0.00     0.00   0.00   0.00     0.02   0.00   0.02
  46   6    -0.06  -0.01   0.02    -0.00   0.01  -0.00     0.00  -0.00  -0.00
  47   8    -0.03  -0.01   0.01    -0.01   0.00  -0.00     0.00  -0.00  -0.00
  48   7     0.12   0.01  -0.06    -0.02   0.00   0.01     0.01  -0.00  -0.01
  49   1    -0.05  -0.00  -0.00    -0.00   0.00   0.00     0.00   0.00  -0.00
  50   1    -0.35  -0.01   0.06     0.06   0.00  -0.01    -0.04  -0.00   0.01
  51   7     0.13   0.02  -0.01    -0.01  -0.01   0.00     0.01  -0.00  -0.00
  52   1    -0.18   0.03   0.02     0.04  -0.01  -0.01    -0.03   0.01   0.00
  53   1    -0.07   0.00  -0.02     0.00  -0.00   0.01     0.00   0.00  -0.01
                     40                     41                     42
                        a                      a                      a 
 Frequencies --   452.4884               456.4137               466.4741
 Red. masses --     3.0972                 8.0077                 7.6387
 Frc consts  --     0.0000                 0.0000                 0.0000
 IR Inten    --   235.0902                 3.7120                 1.2850
 Raman Activ --     0.0000                 0.0000                 0.0000
 Depolar     --     0.0000                 0.0000                 0.0000
 Atom AN      X      Y      Z        X      Y      Z        X      Y      Z
   1   8    -0.01   0.01  -0.02     0.00   0.02   0.04    -0.01   0.00   0.01
   2   6    -0.01  -0.02   0.02     0.01   0.07  -0.06     0.00   0.01  -0.01
   3   1    -0.00  -0.01   0.01     0.00   0.02  -0.02     0.00   0.00  -0.00
   4   1    -0.01  -0.00   0.00     0.00   0.02  -0.03    -0.00  -0.00  -0.01
   5   6     0.00  -0.01   0.02     0.06   0.15  -0.04     0.01  -0.01  -0.02
   6   1     0.00  -0.00   0.01     0.16   0.14   0.02    -0.01  -0.01  -0.01
   7   1     0.00   0.00  -0.00    -0.13   0.15   0.00     0.02  -0.02  -0.00
   8   7     0.01   0.01   0.02     0.07  -0.34  -0.15     0.01   0.02  -0.01
   9   6     0.02  -0.03  -0.01    -0.06   0.27   0.24    -0.02  -0.00  -0.01
  10   1     0.01  -0.01   0.00    -0.04   0.18  -0.02    -0.01  -0.01   0.00
  11   1     0.01  -0.02  -0.00    -0.04   0.20   0.07    -0.01   0.00  -0.01
  12   1     0.01  -0.00  -0.02    -0.01   0.03   0.27    -0.01  -0.00  -0.00
  13   6    -0.03   0.01  -0.04     0.24  -0.33   0.05    -0.01   0.00   0.02
  14   1    -0.01  -0.01  -0.02     0.04  -0.05   0.06     0.00   0.01   0.01
  15   1    -0.01   0.01  -0.01     0.09  -0.08   0.05    -0.01  -0.01  -0.01
  16   1    -0.02   0.02  -0.02     0.11  -0.13   0.00    -0.01  -0.01   0.02
  17   6     0.01   0.03   0.01    -0.30   0.02  -0.15     0.02  -0.00   0.01
  18   1     0.01  -0.00   0.00    -0.08   0.07  -0.02    -0.00   0.01  -0.00
  19   1    -0.00   0.02   0.01    -0.06   0.10  -0.00     0.01  -0.02  -0.01
  20   1     0.00   0.01  -0.01    -0.20  -0.04  -0.09     0.01  -0.01   0.03
  21   1    -0.00  -0.01   0.01    -0.00  -0.01   0.02    -0.01  -0.02   0.04
  22   6     0.04  -0.00   0.04    -0.01   0.00   0.00     0.01   0.10   0.13
  23   8     0.02   0.01   0.03     0.00   0.00  -0.00     0.08   0.16   0.09
  24   7    -0.00   0.01  -0.02     0.01  -0.01  -0.00     0.08  -0.01  -0.21
  25   1    -0.02  -0.00  -0.02    -0.02   0.00  -0.01    -0.16  -0.08  -0.16
  26   1     0.01   0.01  -0.02     0.02  -0.01   0.00     0.22   0.03  -0.12
  27   7    -0.04   0.00  -0.01     0.01  -0.00   0.01    -0.13  -0.21   0.04
  28   1     0.06  -0.04   0.04    -0.06   0.02  -0.02    -0.18  -0.10   0.05
  29   1     0.04  -0.04   0.01     0.01  -0.01   0.00     0.01  -0.11  -0.10
  30   6    -0.01  -0.01  -0.01    -0.03   0.01   0.03     0.04  -0.01  -0.03
  31   8    -0.01   0.00  -0.02    -0.01  -0.01   0.04     0.04   0.01  -0.05
  32   7     0.01   0.03   0.03     0.04  -0.04  -0.01    -0.06   0.03  -0.01
  33   1    -0.04  -0.04  -0.01     0.04   0.01  -0.03    -0.03   0.01   0.05
  34   1    -0.01   0.00  -0.01     0.03  -0.04   0.02    -0.03   0.05  -0.02
  35   7     0.05   0.02   0.01    -0.01   0.02  -0.06    -0.00  -0.05   0.06
  36   1    -0.13  -0.14  -0.04     0.03   0.07  -0.01     0.06   0.01   0.05
  37   1    -0.00   0.02   0.02     0.02  -0.01  -0.03    -0.03  -0.01   0.02
  38   6    -0.09  -0.05  -0.11     0.00  -0.01  -0.02     0.07  -0.10  -0.07
  39   8    -0.01  -0.04  -0.08    -0.01  -0.02  -0.01    -0.01  -0.18   0.00
  40   7     0.09  -0.03   0.15    -0.00   0.01   0.03    -0.12   0.04   0.13
  41   1    -0.13   0.04  -0.09    -0.02   0.03  -0.01     0.07   0.16   0.13
  42   1    -0.02  -0.02   0.05    -0.01  -0.01   0.02    -0.18  -0.06   0.08
  43   7     0.20   0.09   0.17     0.03   0.03   0.00     0.05   0.19  -0.09
  44   1    -0.65   0.01  -0.57    -0.05   0.01  -0.06     0.15   0.10  -0.00
  45   1     0.00   0.02  -0.01     0.00   0.01   0.00    -0.02   0.09   0.03
  46   6     0.00  -0.02   0.02     0.00  -0.00   0.00     0.01  -0.13   0.12
  47   8     0.01  -0.01   0.03    -0.00  -0.00   0.00     0.02  -0.03   0.20
  48   7     0.00  -0.02  -0.03     0.00  -0.00  -0.00    -0.02  -0.11  -0.22
  49   1     0.01   0.00  -0.02     0.00  -0.00  -0.00    -0.02   0.06  -0.10
  50   1    -0.05  -0.02  -0.01    -0.02  -0.00   0.00    -0.01  -0.11  -0.12
  51   7     0.01   0.04  -0.00     0.00   0.00   0.00    -0.00   0.20  -0.03
  52   1    -0.00   0.03   0.01    -0.02   0.01   0.00    -0.08   0.20   0.09
  53   1    -0.01   0.01  -0.03     0.00   0.00  -0.00     0.11   0.08  -0.20
                     43                     44                     45
                        a                      a                      a 
 Frequencies --   466.8738               471.9396               476.0947
 Red. masses --     5.0020                 7.1757                 3.3713
 Frc consts  --     0.0000                 0.0000                 0.0000
 IR Inten    --    16.0171                 9.1660                 1.5379
 Raman Activ --     0.0000                 0.0000                 0.0000
 Depolar     --     0.0000                 0.0000                 0.0000
 Atom AN      X      Y      Z        X      Y      Z        X      Y      Z
   1   8     0.01  -0.02   0.04     0.02  -0.00  -0.01    -0.01   0.01  -0.02
   2   6     0.02   0.06  -0.06     0.00  -0.02   0.02    -0.01  -0.03   0.03
   3   1    -0.01  -0.00   0.00    -0.00  -0.01   0.00     0.00  -0.00   0.01
   4   1    -0.01   0.03  -0.04     0.00   0.00   0.01     0.00  -0.01   0.01
   5   6     0.10  -0.03  -0.09    -0.02   0.01   0.03    -0.02   0.00   0.04
   6   1    -0.03  -0.04  -0.06     0.01   0.01   0.02     0.01   0.01   0.03
   7   1     0.08  -0.06  -0.02    -0.02   0.01   0.00    -0.03   0.02   0.01
   8   7     0.09   0.08  -0.03    -0.02  -0.00   0.02    -0.03  -0.02   0.01
   9   6    -0.09  -0.04  -0.03     0.02  -0.01  -0.00     0.04   0.01   0.00
  10   1    -0.03  -0.05   0.04     0.01  -0.00  -0.00     0.02   0.01  -0.02
  11   1    -0.06  -0.00  -0.05     0.01  -0.01   0.00     0.02   0.00   0.01
  12   1    -0.05  -0.02  -0.02     0.01   0.00  -0.01     0.01   0.00   0.00
  13   6    -0.09  -0.03   0.02     0.01   0.03  -0.02     0.02   0.01  -0.01
  14   1    -0.04  -0.00   0.02     0.02   0.00  -0.01    -0.00  -0.01  -0.00
  15   1    -0.02  -0.07  -0.01    -0.01   0.02  -0.01     0.01   0.02   0.01
  16   1    -0.06   0.01   0.03     0.00   0.00  -0.00     0.02   0.01  -0.02
  17   6     0.04   0.03   0.12    -0.00  -0.01   0.00    -0.00  -0.01  -0.05
  18   1     0.04   0.01   0.07     0.00  -0.01   0.00    -0.01   0.00  -0.02
  19   1    -0.03  -0.01   0.04    -0.01  -0.00   0.00     0.01   0.00  -0.02
  20   1     0.00   0.01   0.03     0.01   0.01  -0.01     0.00  -0.00  -0.01
  21   1     0.00  -0.01   0.02     0.02   0.04  -0.06    -0.00  -0.00  -0.00
  22   6    -0.01  -0.02  -0.01     0.00   0.07   0.11     0.05  -0.04  -0.03
  23   8     0.00  -0.02  -0.01     0.06   0.13   0.06     0.05  -0.09   0.00
  24   7    -0.01  -0.01   0.03     0.05  -0.01  -0.15     0.01   0.00   0.09
  25   1    -0.01   0.01   0.01    -0.10  -0.07  -0.11    -0.49   0.29  -0.17
  26   1    -0.01  -0.01   0.02     0.14   0.03  -0.09     0.39  -0.24   0.18
  27   7     0.02   0.04   0.02    -0.10  -0.14   0.04    -0.06   0.10  -0.06
  28   1    -0.01   0.03  -0.02    -0.09  -0.07   0.04    -0.09   0.06  -0.06
  29   1     0.01   0.02   0.02    -0.02  -0.06  -0.06     0.06  -0.02   0.03
  30   6    -0.17   0.05   0.08    -0.00  -0.01  -0.03     0.04  -0.06  -0.08
  31   8    -0.10  -0.12   0.20     0.01  -0.04  -0.02     0.04  -0.01  -0.11
  32   7     0.11  -0.13  -0.06    -0.06   0.02  -0.02    -0.13   0.08  -0.01
  33   1     0.50   0.36  -0.02     0.16   0.17   0.09     0.13   0.19   0.17
  34   1    -0.01  -0.44  -0.02    -0.07  -0.10  -0.06    -0.12  -0.04  -0.09
  35   7     0.00   0.21  -0.18     0.02   0.02   0.05     0.05  -0.03   0.16
  36   1    -0.02   0.13  -0.09     0.02  -0.01   0.03     0.02  -0.07   0.07
  37   1     0.05  -0.02  -0.11    -0.03  -0.01   0.01    -0.07  -0.02   0.04
  38   6     0.00  -0.01  -0.01     0.04  -0.07  -0.09    -0.04   0.07   0.06
  39   8     0.00  -0.01  -0.01    -0.03  -0.16  -0.00     0.02   0.13   0.01
  40   7    -0.00  -0.00   0.02    -0.08   0.05   0.12     0.07  -0.02  -0.08
  41   1    -0.00   0.01   0.00    -0.03   0.14   0.04    -0.07  -0.10  -0.11
  42   1    -0.01  -0.01   0.01    -0.07  -0.05   0.12     0.14   0.04  -0.04
  43   7     0.01   0.01   0.00     0.06   0.12  -0.08    -0.06  -0.11   0.04
  44   1    -0.03   0.01  -0.03     0.05   0.06  -0.05    -0.05  -0.06   0.04
  45   1    -0.00   0.01   0.00    -0.00   0.06   0.02     0.02  -0.06  -0.01
  46   6     0.01  -0.04   0.03    -0.01   0.16  -0.13    -0.00  -0.01   0.00
  47   8     0.01  -0.01   0.06    -0.03   0.02  -0.26    -0.00   0.00   0.01
  48   7    -0.01  -0.03  -0.06     0.01   0.14   0.27     0.01  -0.01  -0.01
  49   1    -0.01   0.02  -0.03     0.06  -0.07   0.12    -0.02   0.00  -0.00
  50   1    -0.01  -0.03  -0.03    -0.04   0.14   0.16     0.02  -0.01  -0.01
  51   7    -0.00   0.06  -0.01     0.03  -0.24   0.03    -0.01   0.00  -0.00
  52   1    -0.02   0.06   0.03     0.14  -0.26  -0.13    -0.05   0.02   0.01
  53   1     0.03   0.02  -0.06    -0.22  -0.10   0.27     0.07   0.01  -0.03
                     46                     47                     48
                        a                      a                      a 
 Frequencies --   477.1670               483.7186               484.6237
 Red. masses --     4.7729                 3.0971                 4.6412
 Frc consts  --     0.0000                 0.0000                 0.0000
 IR Inten    --    18.9289                 7.3548                19.1806
 Raman Activ --     0.0000                 0.0000                 0.0000
 Depolar     --     0.0000                 0.0000                 0.0000
 Atom AN      X      Y      Z        X      Y      Z        X      Y      Z
   1   8     0.03  -0.03   0.07     0.01  -0.02   0.04    -0.00  -0.02   0.06
   2   6     0.03   0.10  -0.10     0.02   0.06  -0.07     0.03   0.09  -0.10
   3   1    -0.01   0.00  -0.01    -0.00   0.01  -0.01    -0.00   0.02  -0.02
   4   1    -0.02   0.04  -0.06    -0.00   0.02  -0.04    -0.00   0.03  -0.05
   5   6     0.14  -0.02  -0.15     0.07  -0.00  -0.09     0.10   0.00  -0.12
   6   1    -0.03  -0.05  -0.09    -0.01  -0.02  -0.05    -0.01  -0.02  -0.07
   7   1     0.11  -0.07  -0.03     0.05  -0.03  -0.02     0.06  -0.04  -0.02
   8   7     0.13   0.09  -0.06     0.07   0.03  -0.03     0.10   0.02  -0.05
   9   6    -0.16  -0.04  -0.01    -0.10  -0.00   0.02    -0.13  -0.00   0.04
  10   1    -0.06  -0.05   0.07    -0.03  -0.02   0.03    -0.05  -0.02   0.05
  11   1    -0.09   0.00  -0.06    -0.05   0.02  -0.02    -0.08   0.03  -0.03
  12   1    -0.06  -0.02   0.01    -0.04  -0.01   0.02    -0.06  -0.02   0.04
  13   6    -0.11  -0.07   0.04    -0.04  -0.06   0.04    -0.06  -0.10   0.05
  14   1    -0.06  -0.02   0.03    -0.03  -0.01   0.02    -0.05  -0.02   0.03
  15   1    -0.02  -0.10   0.00    -0.00  -0.06   0.01    -0.00  -0.08   0.01
  16   1    -0.08   0.01   0.04    -0.03  -0.01   0.03    -0.05  -0.01   0.03
  17   6     0.02   0.04   0.17    -0.00   0.02   0.08    -0.02   0.04   0.11
  18   1     0.06   0.01   0.10     0.02   0.02   0.05     0.03   0.02   0.07
  19   1    -0.06  -0.01   0.07    -0.03  -0.00   0.03    -0.05   0.01   0.06
  20   1    -0.01   0.01   0.03    -0.02  -0.00   0.02    -0.03   0.00   0.01
  21   1     0.01  -0.00   0.00     0.00  -0.01   0.02    -0.00  -0.01   0.02
  22   6    -0.01  -0.02   0.00    -0.03   0.06   0.03     0.02  -0.00  -0.03
  23   8     0.05  -0.02   0.00    -0.01   0.07   0.02    -0.03  -0.05   0.01
  24   7     0.01  -0.03   0.02     0.03   0.01  -0.07    -0.01   0.03   0.03
  25   1    -0.30   0.14  -0.11     0.12  -0.11   0.01     0.05   0.02   0.04
  26   1     0.24  -0.13   0.08    -0.06   0.08  -0.08    -0.05   0.00   0.02
  27   7    -0.02   0.05   0.02    -0.01  -0.12   0.01     0.03   0.02  -0.04
  28   1    -0.12   0.06  -0.06    -0.07  -0.05   0.02     0.03  -0.00   0.00
  29   1     0.03  -0.01   0.02    -0.03  -0.03  -0.06    -0.00   0.01  -0.01
  30   6    -0.04   0.06   0.09     0.05  -0.02  -0.03     0.08  -0.05  -0.07
  31   8    -0.03   0.06   0.13     0.03   0.01  -0.06     0.04   0.02  -0.13
  32   7     0.16  -0.09   0.01    -0.06   0.04   0.00    -0.12   0.09   0.01
  33   1    -0.26  -0.31  -0.23    -0.01   0.02   0.06     0.00   0.07   0.14
  34   1     0.19   0.16   0.14    -0.05   0.02  -0.04    -0.11   0.03  -0.08
  35   7    -0.08  -0.01  -0.19     0.02  -0.04   0.06     0.05  -0.07   0.14
  36   1     0.03   0.15  -0.07     0.03  -0.03   0.04     0.01  -0.09   0.06
[...]
  44   1    -0.00   0.01   0.01    -0.00   0.00   0.00    -0.00   0.01   0.00
  45   1    -0.05  -0.12   0.04    -0.01  -0.03   0.01    -0.03  -0.07   0.02
  46   6    -0.00  -0.01   0.00    -0.00   0.02  -0.02    -0.00   0.01   0.00
  47   8     0.00   0.00  -0.01     0.00  -0.01   0.01     0.00  -0.00   0.00
  48   7    -0.01  -0.04  -0.07     0.00   0.02   0.03     0.02   0.13   0.17
  49   1     0.04   0.13   0.28    -0.01  -0.06  -0.13    -0.10  -0.38  -0.80
  50   1    -0.01   0.03  -0.04     0.01  -0.02   0.02     0.03  -0.09   0.14
  51   7     0.00   0.00   0.00     0.00  -0.00   0.00    -0.00  -0.00  -0.00
  52   1    -0.00  -0.00   0.00    -0.00  -0.00   0.01     0.00   0.01  -0.01
  53   1    -0.00   0.00   0.00    -0.00   0.01   0.00     0.00  -0.02  -0.00
                    142                    143                    144
                        a                      a                      a 
 Frequencies --  3489.7813              3495.5083              3497.3971
 Red. masses --     1.8822                 1.4540                 1.4580
 Frc consts  --     0.0000                 0.0000                 0.0000
 IR Inten    --    92.1663                17.5114                14.7822
 Raman Activ --     0.0000                 0.0000                 0.0000
 Depolar     --     0.0000                 0.0000                 0.0000
 Atom AN      X      Y      Z        X      Y      Z        X      Y      Z
   1   8     0.00   0.00   0.00     0.00   0.00   0.00    -0.00  -0.00  -0.00
   2   6     0.00  -0.00  -0.00     0.00  -0.00  -0.00    -0.00  -0.00   0.00
   3   1    -0.00   0.00  -0.00    -0.00   0.00  -0.00     0.00   0.00   0.00
   4   1    -0.00   0.00   0.00    -0.00  -0.00   0.00     0.00   0.00  -0.00
   5   6     0.00  -0.00   0.00     0.00  -0.00   0.00    -0.00   0.00   0.00
   6   1    -0.00   0.00  -0.00    -0.00   0.00   0.00    -0.00  -0.00  -0.00
   7   1     0.00   0.00   0.00    -0.00  -0.00  -0.00     0.00   0.00  -0.00
   8   7     0.00  -0.00   0.00     0.00   0.00  -0.00    -0.00   0.00  -0.00
   9   6    -0.00  -0.00   0.00    -0.00  -0.00   0.00     0.00  -0.00  -0.00
  10   1     0.00   0.00  -0.00    -0.00  -0.00  -0.00    -0.00   0.00  -0.00
  11   1     0.00  -0.00  -0.00     0.00  -0.00  -0.00    -0.00  -0.00   0.00
  12   1    -0.00   0.00  -0.00    -0.00   0.00   0.00    -0.00  -0.00  -0.00
  13   6    -0.00   0.00  -0.00    -0.00  -0.00   0.00     0.00   0.00  -0.00
  14   1     0.00  -0.00   0.00    -0.00   0.00  -0.00     0.00   0.00   0.00
  15   1     0.00   0.00  -0.00     0.00   0.00  -0.00    -0.00  -0.00   0.00
  16   1    -0.00  -0.00  -0.00    -0.00  -0.00  -0.00    -0.00  -0.00  -0.00
  17   6     0.00  -0.00   0.00    -0.00  -0.00   0.00    -0.00   0.00  -0.00
  18   1    -0.00  -0.00   0.00     0.00   0.00  -0.00     0.00   0.00  -0.00
  19   1     0.00  -0.00  -0.00    -0.00   0.00  -0.00     0.00  -0.00   0.00
  20   1    -0.00   0.00  -0.00    -0.00   0.00   0.00     0.00  -0.00  -0.00
  21   1    -0.02  -0.00  -0.00    -0.00  -0.00  -0.00     0.02  -0.00   0.01
  22   6     0.00   0.01   0.00     0.00   0.00  -0.00    -0.00  -0.00   0.00
  23   8    -0.00  -0.00  -0.00     0.00  -0.00   0.00     0.00   0.00   0.00
  24   7    -0.02  -0.03  -0.00     0.00   0.00  -0.00     0.00   0.01  -0.00
  25   1     0.05   0.02  -0.10    -0.01  -0.00   0.02    -0.01  -0.00   0.02
  26   1     0.02   0.10   0.11    -0.00  -0.01  -0.01    -0.00  -0.02  -0.02
  27   7     0.01   0.20   0.16    -0.00   0.00   0.00    -0.00  -0.02  -0.02
  28   1     0.03  -0.69  -0.63     0.00  -0.01  -0.01    -0.00   0.08   0.08
  29   1    -0.06  -0.06   0.03    -0.00   0.00   0.00     0.01   0.01  -0.00
  30   6     0.00  -0.00   0.00     0.00   0.00  -0.00    -0.00  -0.00   0.00
  31   8    -0.00   0.00  -0.00    -0.00   0.00   0.00     0.00  -0.00  -0.00
  32   7    -0.00  -0.00   0.00     0.02   0.11  -0.15    -0.00  -0.00   0.00
  33   1    -0.01   0.01  -0.00     0.44  -0.49   0.05    -0.00   0.00  -0.00
  34   1     0.01  -0.00  -0.01    -0.53   0.07   0.49     0.00  -0.00  -0.00
  35   7    -0.00   0.00   0.00    -0.00  -0.00   0.01     0.00   0.00  -0.00
  36   1     0.00  -0.00  -0.00     0.02  -0.01  -0.03    -0.00   0.00   0.00
  37   1     0.00   0.00   0.00    -0.00   0.01  -0.01    -0.00  -0.00   0.00
  38   6    -0.00   0.00   0.00     0.00   0.00  -0.00     0.00  -0.00   0.00
  39   8    -0.00  -0.00  -0.00    -0.00  -0.00   0.00    -0.00   0.00  -0.00
  40   7     0.00   0.01  -0.00     0.00   0.00  -0.00    -0.00  -0.01   0.00
  41   1    -0.02  -0.00   0.02    -0.00  -0.00   0.00     0.02   0.00  -0.02
  42   1     0.01  -0.02  -0.01     0.00  -0.00  -0.00    -0.01   0.02   0.01
  43   7    -0.00   0.00   0.00    -0.00  -0.00   0.00    -0.00   0.00   0.00
  44   1     0.00  -0.00  -0.00     0.00  -0.00  -0.00     0.00  -0.00  -0.00
  45   1     0.00   0.00  -0.00     0.00   0.00  -0.00     0.00   0.00   0.00
  46   6     0.00  -0.00   0.00    -0.00  -0.00   0.00    -0.00   0.00   0.00
  47   8     0.00   0.00  -0.00     0.00   0.00   0.00    -0.00   0.00  -0.00
  48   7     0.00   0.00   0.00    -0.00   0.00   0.00    -0.00  -0.00  -0.01
  49   1    -0.00  -0.01  -0.02    -0.00  -0.00  -0.00     0.00   0.01   0.02
  50   1     0.00  -0.00   0.01     0.00  -0.00   0.00     0.01  -0.02   0.02
  51   7    -0.00   0.01   0.02    -0.00   0.00   0.00    -0.00   0.07   0.17
  52   1    -0.00   0.05  -0.07    -0.00   0.00  -0.00    -0.01   0.41  -0.57
  53   1     0.00  -0.09  -0.01     0.00  -0.00  -0.00     0.02  -0.67  -0.06
                    145                    146                    147
                        a                      a                      a 
 Frequencies --  3499.8155              3502.9403              3524.8468
 Red. masses --     1.4513                 1.4607                 1.9026
 Frc consts  --     0.0000                 0.0000                 0.0000
 IR Inten    --    21.5613                25.8166                12.5864
 Raman Activ --     0.0000                 0.0000                 0.0000
 Depolar     --     0.0000                 0.0000                 0.0000
 Atom AN      X      Y      Z        X      Y      Z        X      Y      Z
   1   8    -0.00  -0.00  -0.00    -0.00  -0.00  -0.00    -0.00  -0.00  -0.00
   2   6     0.00  -0.00   0.00    -0.00   0.00   0.00     0.00   0.00   0.00
   3   1    -0.00   0.00   0.00    -0.00  -0.00   0.00     0.00  -0.00   0.00
   4   1     0.00   0.00  -0.00     0.00   0.00  -0.00     0.00   0.00  -0.00
   5   6    -0.00   0.00   0.00    -0.00  -0.00   0.00    -0.00  -0.00   0.00
   6   1     0.00  -0.00  -0.00     0.00  -0.00   0.00    -0.00   0.00  -0.00
   7   1    -0.00   0.00  -0.00     0.00   0.00  -0.00    -0.00  -0.00  -0.00
   8   7     0.00   0.00  -0.00    -0.00   0.00  -0.00     0.00   0.00  -0.00
   9   6    -0.00   0.00  -0.00    -0.00  -0.00   0.00     0.00  -0.00  -0.00
  10   1    -0.00  -0.00  -0.00     0.00   0.00   0.00    -0.00  -0.00  -0.00
  11   1     0.00   0.00  -0.00     0.00   0.00  -0.00    -0.00   0.00  -0.00
  12   1     0.00  -0.00   0.00     0.00  -0.00   0.00    -0.00   0.00   0.00
  13   6     0.00  -0.00   0.00    -0.00  -0.00   0.00     0.00   0.00  -0.00
  14   1    -0.00   0.00  -0.00    -0.00  -0.00  -0.00     0.00  -0.00   0.00
  15   1     0.00   0.00  -0.00    -0.00   0.00  -0.00    -0.00  -0.00   0.00
  16   1    -0.00  -0.00  -0.00     0.00   0.00   0.00     0.00  -0.00  -0.00
  17   6    -0.00   0.00  -0.00     0.00   0.00  -0.00    -0.00   0.00  -0.00
  18   1     0.00   0.00  -0.00    -0.00   0.00  -0.00    -0.00   0.00   0.00
  19   1     0.00   0.00   0.00    -0.00   0.00   0.00     0.00  -0.00   0.00
  20   1     0.00  -0.00  -0.00     0.00  -0.00  -0.00     0.00   0.00  -0.00
  21   1     0.00  -0.00   0.00     0.00   0.00   0.00     0.00   0.00   0.00
  22   6     0.00  -0.00  -0.00    -0.00  -0.00  -0.00    -0.00  -0.00  -0.00
  23   8    -0.00  -0.00   0.00     0.00   0.00   0.00    -0.00   0.00   0.00
  24   7     0.00   0.01  -0.00    -0.10  -0.15   0.04    -0.00  -0.01  -0.00
  25   1    -0.01  -0.00   0.02     0.30   0.10  -0.63     0.00   0.00  -0.01
  26   1    -0.00  -0.02  -0.02     0.07   0.44   0.49     0.00   0.02   0.02
  27   7    -0.00  -0.01  -0.01     0.00  -0.03  -0.03    -0.00  -0.00   0.00
  28   1    -0.00   0.03   0.02    -0.01   0.13   0.12    -0.00   0.00   0.00
  29   1     0.01   0.01  -0.00     0.00  -0.00  -0.00     0.00   0.00  -0.00
  30   6    -0.00   0.00  -0.00     0.00  -0.00  -0.00     0.00   0.00  -0.01
  31   8    -0.00  -0.00   0.00    -0.00   0.00   0.00    -0.00   0.00   0.00
  32   7    -0.00  -0.00   0.00    -0.00   0.00  -0.00    -0.02   0.02   0.00
  33   1    -0.00   0.00  -0.00     0.01  -0.01   0.00     0.05  -0.06   0.01
  34   1     0.00  -0.00  -0.00    -0.01   0.00   0.01     0.01  -0.00  -0.01
  35   7     0.00  -0.00  -0.00    -0.00  -0.00   0.01     0.14  -0.06  -0.21
  36   1    -0.00   0.00   0.00     0.01  -0.01  -0.02    -0.52   0.27   0.76
  37   1     0.00   0.00  -0.00     0.00   0.01  -0.02     0.01  -0.06   0.06
  38   6     0.00   0.00   0.00     0.00  -0.00  -0.00     0.00   0.00  -0.00
  39   8     0.00  -0.00  -0.00     0.00   0.00  -0.00    -0.00  -0.00   0.00
  40   7     0.06   0.17  -0.04     0.00   0.00  -0.00     0.00  -0.00  -0.00
  41   1    -0.43  -0.02   0.51    -0.01  -0.00   0.01    -0.00  -0.00   0.00
  42   1     0.19  -0.60  -0.35     0.01  -0.02  -0.01    -0.00   0.00   0.00
  43   7     0.00  -0.02  -0.00     0.00  -0.00  -0.00    -0.00   0.01   0.00
  44   1    -0.02   0.05   0.02    -0.00   0.01   0.00     0.01  -0.03  -0.01
  45   1     0.00   0.01  -0.01    -0.00  -0.01   0.00     0.00   0.00  -0.00
  46   6    -0.00   0.00   0.00    -0.00   0.00  -0.00     0.00   0.00  -0.00
  47   8    -0.00   0.00  -0.00    -0.00  -0.00  -0.00    -0.00  -0.00   0.00
  48   7     0.00  -0.00  -0.00    -0.00  -0.00  -0.00    -0.00   0.00  -0.00
  49   1     0.00   0.01   0.02     0.00   0.00   0.00     0.00   0.00   0.00
  50   1    -0.00   0.01  -0.01    -0.00   0.00  -0.00     0.00  -0.00   0.00
  51   7    -0.00   0.00   0.01    -0.00   0.00   0.00    -0.00   0.00   0.00
  52   1    -0.00   0.01  -0.02    -0.00   0.01  -0.01     0.00   0.00  -0.00
  53   1     0.00  -0.02  -0.00     0.00  -0.01  -0.00     0.00  -0.00  -0.00
                    148                    149                    150
                        a                      a                      a 
 Frequencies --  3529.8841              3538.1797              3559.5538
 Red. masses --     1.8807                 1.9555                 2.1747
 Frc consts  --     0.0000                 0.0000                 0.0000
 IR Inten    --    14.2681                19.3248                 9.6314
 Raman Activ --     0.0000                 0.0000                 0.0000
 Depolar     --     0.0000                 0.0000                 0.0000
 Atom AN      X      Y      Z        X      Y      Z        X      Y      Z
   1   8    -0.00  -0.00  -0.00    -0.00   0.00  -0.00     0.00   0.00   0.00
   2   6    -0.00   0.00  -0.00    -0.00  -0.00  -0.00     0.00  -0.00  -0.00
   3   1     0.00  -0.00   0.00    -0.00  -0.00  -0.00    -0.00   0.00  -0.00
   4   1    -0.00  -0.00   0.00     0.00  -0.00  -0.00    -0.00  -0.00   0.00
   5   6    -0.00   0.00   0.00     0.00  -0.00  -0.00     0.00  -0.00  -0.00
   6   1     0.00  -0.00   0.00    -0.00   0.00   0.00     0.00  -0.00   0.00
   7   1    -0.00  -0.00  -0.00     0.00   0.00   0.00    -0.00   0.00   0.00
   8   7     0.00  -0.00   0.00    -0.00   0.00  -0.00    -0.00   0.00  -0.00
   9   6    -0.00  -0.00   0.00    -0.00  -0.00  -0.00    -0.00  -0.00   0.00
  10   1    -0.00  -0.00  -0.00     0.00   0.00   0.00    -0.00  -0.00   0.00
  11   1     0.00   0.00  -0.00    -0.00  -0.00   0.00     0.00   0.00  -0.00
  12   1     0.00  -0.00   0.00    -0.00   0.00   0.00    -0.00  -0.00   0.00
  13   6    -0.00   0.00   0.00    -0.00   0.00  -0.00    -0.00  -0.00   0.00
  14   1    -0.00   0.00   0.00     0.00  -0.00   0.00    -0.00   0.00   0.00
  15   1     0.00   0.00  -0.00    -0.00  -0.00   0.00     0.00   0.00  -0.00
  16   1    -0.00  -0.00  -0.00     0.00   0.00   0.00     0.00   0.00   0.00
  17   6    -0.00   0.00   0.00     0.00  -0.00   0.00    -0.00  -0.00   0.00
  18   1     0.00   0.00  -0.00     0.00  -0.00  -0.00     0.00  -0.00  -0.00
  19   1     0.00  -0.00   0.00    -0.00   0.00  -0.00    -0.00   0.00  -0.00
  20   1     0.00  -0.00   0.00    -0.00   0.00   0.00    -0.00  -0.00   0.00
  21   1     0.00   0.00   0.00     0.00   0.00   0.00    -0.00  -0.00  -0.00
  22   6     0.00  -0.00  -0.00     0.00  -0.00  -0.00    -0.00   0.00   0.00
  23   8     0.00   0.00   0.00     0.00   0.00   0.00     0.00  -0.00  -0.00
  24   7     0.00   0.00   0.00    -0.00   0.00   0.00    -0.00   0.00   0.00
  25   1    -0.00  -0.00   0.00     0.00   0.00  -0.00     0.00   0.00  -0.00
  26   1    -0.00  -0.01  -0.01    -0.00  -0.00  -0.00    -0.00  -0.01  -0.01
  27   7    -0.00   0.00   0.00     0.00   0.00  -0.00     0.00   0.00   0.00
  28   1     0.00  -0.01  -0.01     0.00   0.00   0.00     0.00  -0.00  -0.00
  29   1     0.00   0.00   0.00    -0.01  -0.01   0.00    -0.00  -0.00   0.00
  30   6     0.00  -0.00  -0.00     0.00  -0.00  -0.00    -0.01   0.01   0.00
  31   8    -0.00   0.00   0.00     0.00   0.00   0.00     0.00  -0.00  -0.00
  32   7    -0.00   0.00  -0.00     0.00   0.00  -0.00    -0.24   0.15   0.10
  33   1     0.00  -0.00   0.00     0.00  -0.00  -0.00     0.45  -0.53   0.07
  34   1     0.00   0.00  -0.00    -0.00  -0.00   0.00     0.46  -0.04  -0.44
  35   7     0.00  -0.00  -0.01     0.00  -0.00  -0.00    -0.01   0.00   0.02
  36   1    -0.02   0.01   0.03    -0.00   0.00   0.00     0.04  -0.02  -0.06
  37   1     0.00  -0.00   0.01    -0.00  -0.00   0.00    -0.00   0.01  -0.01
  38   6     0.00  -0.01   0.00    -0.00   0.00   0.00    -0.00   0.00  -0.00
  39   8    -0.00   0.00   0.00     0.00  -0.00  -0.00     0.00  -0.00   0.00
  40   7    -0.02  -0.00   0.02     0.00  -0.00  -0.00     0.00  -0.00  -0.00
  41   1     0.06   0.00  -0.07    -0.00  -0.00   0.00    -0.00  -0.00   0.00
  42   1     0.00  -0.00  -0.00    -0.00   0.01   0.01    -0.00   0.00   0.00
  43   7     0.08  -0.22  -0.10     0.00  -0.00  -0.00     0.00   0.00  -0.00
  44   1    -0.35   0.81   0.39    -0.00   0.00   0.00     0.00  -0.00  -0.00
  45   1     0.03   0.04  -0.03    -0.00  -0.00   0.00    -0.00  -0.00   0.00
  46   6     0.00   0.00  -0.00     0.00   0.00   0.01    -0.00  -0.00   0.00
  47   8    -0.00  -0.00   0.00    -0.00   0.00  -0.00     0.00   0.00   0.00
  48   7    -0.00   0.00  -0.00     0.05  -0.13   0.23     0.00  -0.00   0.00
  49   1     0.00   0.00   0.00    -0.01  -0.08  -0.13    -0.00  -0.00  -0.00
  50   1     0.00  -0.00   0.00    -0.17   0.55  -0.75    -0.00   0.00  -0.00
  51   7    -0.00  -0.00   0.00    -0.00   0.03  -0.01     0.00  -0.00   0.00
  52   1     0.00   0.00  -0.00    -0.00  -0.03   0.04    -0.00   0.00  -0.00
  53   1    -0.00   0.00   0.00     0.00  -0.10  -0.01    -0.00   0.00   0.00
                    151                    152                    153
                        a                      a                      a 
 Frequencies --  3562.0651              3565.5355              3570.5351
 Red. masses --     2.1806                 2.1834                 2.1927
 Frc consts  --     0.0000                 0.0000                 0.0000
 IR Inten    --    15.4231                15.3220                22.0668
 Raman Activ --     0.0000                 0.0000                 0.0000
 Depolar     --     0.0000                 0.0000                 0.0000
 Atom AN      X      Y      Z        X      Y      Z        X      Y      Z
   1   8    -0.00  -0.00  -0.00     0.00   0.00   0.00    -0.00  -0.00  -0.00
   2   6     0.00  -0.00   0.00     0.00  -0.00  -0.00    -0.00   0.00   0.00
   3   1     0.00   0.00   0.00     0.00  -0.00  -0.00    -0.00  -0.00   0.00
   4   1    -0.00  -0.00  -0.00    -0.00   0.00  -0.00     0.00  -0.00  -0.00
   5   6     0.00   0.00  -0.00     0.00  -0.00  -0.00    -0.00   0.00  -0.00
   6   1     0.00  -0.00  -0.00    -0.00   0.00  -0.00    -0.00   0.00   0.00
   7   1    -0.00  -0.00  -0.00     0.00   0.00   0.00     0.00  -0.00  -0.00
   8   7    -0.00   0.00  -0.00    -0.00   0.00  -0.00    -0.00  -0.00   0.00
   9   6     0.00  -0.00   0.00     0.00  -0.00   0.00     0.00   0.00  -0.00
  10   1    -0.00  -0.00  -0.00     0.00   0.00   0.00     0.00  -0.00   0.00
  11   1    -0.00  -0.00   0.00    -0.00  -0.00   0.00    -0.00  -0.00   0.00
  12   1     0.00  -0.00  -0.00    -0.00   0.00  -0.00    -0.00   0.00   0.00
  13   6     0.00  -0.00   0.00    -0.00   0.00  -0.00    -0.00  -0.00   0.00
  14   1    -0.00   0.00  -0.00     0.00  -0.00   0.00    -0.00   0.00  -0.00
  15   1    -0.00   0.00   0.00    -0.00   0.00  -0.00     0.00  -0.00  -0.00
  16   1    -0.00  -0.00  -0.00     0.00   0.00   0.00     0.00   0.00   0.00
  17   6    -0.00   0.00  -0.00     0.00  -0.00   0.00    -0.00  -0.00   0.00
  18   1    -0.00  -0.00   0.00    -0.00   0.00   0.00     0.00   0.00  -0.00
  19   1     0.00  -0.00   0.00    -0.00  -0.00  -0.00    -0.00  -0.00   0.00
  20   1     0.00  -0.00  -0.00    -0.00   0.00  -0.00     0.00   0.00   0.00
  21   1     0.01   0.00   0.00    -0.00  -0.00  -0.00     0.00   0.00   0.00
  22   6    -0.00  -0.00   0.00     0.00   0.00   0.00     0.00  -0.00  -0.01
  23   8     0.00  -0.00  -0.00    -0.00  -0.00  -0.00    -0.00   0.00   0.00
  24   7     0.00  -0.00  -0.00     0.00  -0.00  -0.00     0.05  -0.10  -0.28
  25   1    -0.00  -0.00   0.00    -0.00  -0.00   0.01    -0.29  -0.12   0.58
  26   1     0.00   0.00   0.00     0.00   0.01   0.01     0.09   0.48   0.49
  27   7    -0.00  -0.00  -0.00     0.00   0.00   0.00    -0.00  -0.01  -0.00
  28   1    -0.00   0.01   0.01     0.00  -0.00  -0.00    -0.00   0.02   0.02
  29   1     0.00   0.00  -0.00    -0.01  -0.01   0.00     0.00   0.00  -0.00
  30   6    -0.00   0.00   0.00    -0.00   0.00   0.00    -0.00   0.00   0.00
  31   8     0.00  -0.00  -0.00     0.00  -0.00  -0.00     0.00  -0.00  -0.00
  32   7    -0.00   0.00   0.00    -0.00   0.00   0.00    -0.00   0.00   0.00
  33   1     0.00  -0.00   0.00     0.00  -0.00   0.00     0.00  -0.00   0.00
  34   1     0.00  -0.00  -0.00     0.00  -0.00  -0.00     0.01  -0.00  -0.01
  35   7    -0.00   0.00   0.00    -0.00  -0.00   0.00    -0.00   0.00   0.00
  36   1     0.00  -0.00  -0.00     0.00  -0.00  -0.00     0.01  -0.00  -0.01
  37   1    -0.00  -0.00   0.00    -0.00   0.00  -0.00    -0.00  -0.00   0.01
  38   6    -0.00  -0.00   0.00    -0.01   0.00   0.01     0.00  -0.00  -0.00
  39   8    -0.00   0.00   0.00     0.00  -0.00  -0.00     0.00   0.00   0.00
  40   7    -0.00   0.00   0.01    -0.16   0.13   0.22     0.00  -0.00  -0.00
  41   1     0.01   0.00  -0.01     0.45   0.05  -0.53    -0.01  -0.00   0.01
  42   1     0.00  -0.01  -0.01     0.15  -0.55  -0.30    -0.00   0.01   0.00
  43   7    -0.00   0.00   0.00    -0.00   0.02   0.01    -0.00  -0.00   0.00
  44   1     0.00  -0.00  -0.00     0.03  -0.06  -0.03    -0.00   0.00   0.00
  45   1     0.00   0.00  -0.00    -0.00  -0.00   0.00     0.00   0.01  -0.00
  46   6    -0.00   0.01  -0.00     0.00  -0.00   0.00     0.00   0.00   0.00
  47   8    -0.00  -0.00   0.00     0.00   0.00   0.00    -0.00  -0.00   0.00
  48   7    -0.01   0.01  -0.03     0.00  -0.00   0.00     0.00  -0.00   0.00
  49   1     0.00   0.01   0.02    -0.00  -0.00  -0.01     0.00   0.00   0.00
  50   1     0.02  -0.06   0.08    -0.00   0.01  -0.01    -0.00   0.00  -0.00
  51   7    -0.01   0.27  -0.12     0.00  -0.01   0.00    -0.00  -0.00   0.00
  52   1     0.00  -0.36   0.55    -0.00   0.01  -0.01     0.00   0.00  -0.00
  53   1     0.03  -0.67  -0.08    -0.00   0.02   0.00     0.00   0.00   0.00
