 Entering Gaussian System
 *********************************************
 Gaussian 98:
 frequency output generated by the xtb code
 *********************************************
                         Standard orientation:
 --------------------------------------------------------------------
  Center     Atomic     Atomic              Coordinates (Angstroms)
  Number     Number      Type              X           Y           Z
 --------------------------------------------------------------------
    1          8             0       -1.138107   -2.643423    0.297098
    2          6             0       -0.233155   -2.261584   -0.706276
    3          1             0        0.341590   -3.156178   -0.958751
    4          1             0       -0.772812   -1.949855   -1.609128
    5          6             0        0.679756   -1.093240   -0.317756
    6          1             0        0.061312   -0.305636    0.113166
    7          1             0        1.164732   -0.702865   -1.215726
    8          7             0        1.773323   -1.390942    0.648747
    9          6             0        1.246119   -1.949046    1.903780
   10          1             0        2.069184   -2.241918    2.552527
   11          1             0        0.616531   -2.812238    1.701525
   12          1             0        0.654544   -1.188723    2.412463
   13          6             0        2.454647   -0.117206    0.942904
   14          1             0        1.756348    0.567239    1.421120
   15          1             0        2.812935    0.313507    0.008591
   16          1             0        3.293911   -0.292086    1.612279
   17          6             0        2.749871   -2.308443    0.041563
   18          1             0        3.598757   -2.439460    0.709650
   19          1             0        3.096462   -1.877580   -0.897275
   20          1             0        2.301287   -3.281287   -0.141865
   21          1             0       -1.847031   -1.965415    0.374741
   22          6             0        2.712987    0.854205   -3.011214
   23          8             0        2.852262   -0.003481   -2.144356
   24          7             0        1.993105    1.976599   -2.810146
   25          1             0        1.456020    2.085875   -1.949821
   26          1             0        1.781652    2.586505   -3.579105
   27          7             0        3.272328    0.713416   -4.241679
   28          1             0        3.295804    1.471624   -4.899235
   29          1             0        3.923797   -0.039521   -4.376455
   30          6             0        1.142480    3.338943    0.376975
   31          8             0        0.630894    2.502208   -0.375560
   32          7             0        1.859303    4.378414   -0.118198
   33          1             0        1.877567    4.523699   -1.111357
   34          1             0        2.196715    5.115178    0.473605
   35          7             0        1.046022    3.249770    1.709052
   36          1             0        1.458375    3.936060    2.313338
   37          1             0        0.566303    2.445483    2.126951
   38          6             0       -4.315333   -1.974063   -0.048294
   39          8             0       -3.446272   -1.168520    0.292740
   40          7             0       -4.022828   -3.263184   -0.310831
   41          1             0       -3.079566   -3.581207   -0.148009
   42          1             0       -4.734203   -3.939791   -0.517828
   43          7             0       -5.607652   -1.606689   -0.177402
   44          1             0       -6.313220   -2.237913   -0.509918
   45          1             0       -5.852972   -0.640664   -0.052754
   46          6             0       -1.276138    0.691739    2.052201
   47          8             0       -0.195321    0.939937    2.599426
   48          7             0       -1.552739    1.105059    0.801541
   49          1             0       -0.882645    1.690264    0.305837
   50          1             0       -2.419000    0.842437    0.365821
   51          7             0       -2.236265   -0.035731    2.661220
   52          1             0       -3.000181   -0.400480    2.115587
   53          1             0       -2.049171   -0.421411    3.569122
 --------------------------------------------------------------------
     1 basis functions        1 primitive gaussians
     1 alpha electrons        1 beta electrons

 Harmonic frequencies (cm**-1), IR intensities (km*mol⁻¹),
 Raman scattering activities (A**4/amu), Raman depolarization ratios,
 reduced masses (AMU), force constants (mDyne/A) and normal coordinates:
                      1                      2                      3
                        a                      a                      a 
 Frequencies --    12.1568                17.7592                25.5727
 Red. masses --    12.3065                12.1990                12.1455
 Frc consts  --     0.0000                 0.0000                 0.0000
 IR Inten    --     0.5050                 0.7358                 1.9532
 Raman Activ --     0.0000                 0.0000                 0.0000
 Depolar     --     0.0000                 0.0000                 0.0000
 Atom AN      X      Y      Z        X      Y      Z        X      Y      Z
   1   8    -0.03  -0.23  -0.03    -0.03   0.04  -0.25    -0.00  -0.22  -0.06
   2   6    -0.00  -0.25  -0.03    -0.02   0.12  -0.18     0.01  -0.16  -0.03
   3   1     0.01  -0.07   0.02    -0.01   0.04  -0.08     0.01  -0.04  -0.01
   4   1     0.01  -0.10  -0.02    -0.00   0.06  -0.04     0.00  -0.05  -0.01
   5   6    -0.08  -0.17  -0.09    -0.00   0.07  -0.06    -0.04  -0.13  -0.01
   6   1    -0.04  -0.05  -0.05     0.00   0.02  -0.01    -0.02  -0.05  -0.00
   7   1    -0.02  -0.06  -0.03     0.01   0.03  -0.01    -0.01  -0.03  -0.00
   8   7    -0.09  -0.05  -0.05    -0.05  -0.02  -0.05    -0.05  -0.10  -0.00
   9   6    -0.07  -0.04  -0.04    -0.10  -0.06  -0.09    -0.03  -0.16  -0.02
  10   1    -0.02   0.01  -0.00    -0.04  -0.04  -0.02    -0.01  -0.04  -0.01
  11   1    -0.00  -0.03  -0.01    -0.04  -0.01  -0.05     0.00  -0.05  -0.02
  12   1    -0.04  -0.02  -0.02    -0.03  -0.02  -0.02    -0.02  -0.06  -0.00
  13   6    -0.19   0.02  -0.07    -0.01  -0.06   0.04    -0.11  -0.07   0.04
  14   1    -0.07  -0.01  -0.03     0.00  -0.02   0.02    -0.04  -0.03   0.02
  15   1    -0.06   0.01  -0.02     0.01  -0.01   0.02    -0.04  -0.01   0.02
  16   1    -0.05   0.03  -0.02    -0.01  -0.04   0.02    -0.03  -0.01   0.01
  17   6     0.01   0.01   0.02    -0.06  -0.02  -0.06     0.01  -0.04  -0.01
  18   1    -0.00   0.03   0.02    -0.02  -0.03  -0.01     0.00  -0.01   0.00
  19   1     0.00   0.00   0.01    -0.00   0.00  -0.01     0.00   0.00   0.00
  20   1     0.03  -0.01   0.01    -0.03   0.00  -0.04     0.02  -0.01  -0.01
  21   1    -0.00  -0.05  -0.02    -0.01   0.01  -0.04     0.01  -0.05  -0.00
  22   6    -0.02   0.02   0.00     0.21   0.07   0.07     0.04  -0.02   0.06
  23   8    -0.11  -0.03  -0.04     0.17   0.07   0.09    -0.03  -0.03   0.07
  24   7     0.14   0.11   0.07     0.14   0.03   0.00     0.02  -0.02   0.02
  25   1     0.04   0.04   0.02     0.01   0.00  -0.01    -0.01  -0.00  -0.00
  26   1     0.05   0.04   0.02     0.06   0.01  -0.00     0.03   0.00   0.01
  27   7    -0.08  -0.01  -0.02     0.39   0.12   0.15     0.14  -0.00   0.11
  28   1     0.00   0.00   0.00     0.11   0.03   0.04     0.05   0.00   0.03
  29   1    -0.05  -0.02  -0.02     0.12   0.04   0.06     0.04  -0.00   0.04
  30   6     0.10   0.17   0.11    -0.02  -0.03  -0.08    -0.16   0.13  -0.09
  31   8     0.16   0.23   0.06    -0.04  -0.03  -0.09    -0.11   0.07  -0.06
  32   7     0.16   0.18   0.19    -0.01  -0.04  -0.10    -0.33   0.23  -0.15
  33   1     0.06   0.06   0.05    -0.01  -0.01  -0.03    -0.12   0.06  -0.04
  34   1     0.03   0.05   0.06    -0.00  -0.01  -0.03    -0.12   0.08  -0.05
  35   7     0.02   0.15   0.11    -0.02  -0.02  -0.09    -0.11   0.17  -0.09
  36   1     0.01   0.03   0.04    -0.00  -0.01  -0.03    -0.04   0.06  -0.03
  37   1     0.00   0.04   0.02    -0.01  -0.00  -0.02     0.00   0.03  -0.01
  38   6    -0.01  -0.10   0.07    -0.09  -0.07   0.19     0.03   0.12  -0.02
  39   8     0.04  -0.13  -0.03    -0.09  -0.04   0.09     0.13  -0.01   0.09
  40   7    -0.07  -0.14   0.12    -0.07  -0.04   0.10    -0.10   0.12  -0.16
  41   1    -0.02  -0.04   0.02    -0.01   0.00  -0.02    -0.04  -0.00  -0.05
  42   1    -0.03  -0.03   0.05    -0.02  -0.02   0.05    -0.05   0.06  -0.07
  43   7    -0.01  -0.08   0.14    -0.14  -0.15   0.48     0.08   0.29  -0.01
  44   1    -0.01  -0.02   0.06    -0.04  -0.04   0.15     0.00   0.11  -0.02
  45   1     0.01  -0.02   0.03    -0.05  -0.04   0.15     0.05   0.08   0.03
  46   6     0.02   0.09  -0.10    -0.03   0.01  -0.03     0.15  -0.03   0.08
  47   8    -0.04   0.14  -0.00    -0.03  -0.00  -0.06     0.15   0.08   0.07
  48   7     0.24  -0.10  -0.23    -0.05   0.00  -0.04     0.11  -0.11   0.07
  49   1     0.06   0.00  -0.03    -0.01  -0.00  -0.01     0.01  -0.02   0.01
  50   1     0.05   0.01  -0.06    -0.02   0.01  -0.00     0.03  -0.05   0.03
  51   7    -0.09   0.21  -0.15    -0.05   0.04  -0.01     0.24  -0.11   0.11
  52   1     0.00   0.03  -0.06    -0.01   0.01  -0.00     0.06  -0.04   0.04
  53   1    -0.05   0.07  -0.03    -0.01   0.01  -0.00     0.07  -0.00   0.04
                      4                      5                      6
                        a                      a                      a 
 Frequencies --    29.3571                37.9808                44.4053
 Red. masses --    12.1416                11.8947                12.3571
 Frc consts  --     0.0000                 0.0000                 0.0000
 IR Inten    --     0.8552                 2.3618                 4.3717
 Raman Activ --     0.0000                 0.0000                 0.0000
 Depolar     --     0.0000                 0.0000                 0.0000
 Atom AN      X      Y      Z        X      Y      Z        X      Y      Z
   1   8    -0.08   0.17   0.22    -0.02  -0.06   0.04     0.04   0.10  -0.25
   2   6    -0.07  -0.03   0.12     0.00  -0.11   0.03     0.14   0.08  -0.12
   3   1    -0.04  -0.03   0.06     0.01  -0.03   0.03     0.04   0.02  -0.03
   4   1    -0.02  -0.03   0.03     0.01  -0.05  -0.00     0.07   0.04  -0.05
   5   6     0.02  -0.05  -0.03    -0.03  -0.06  -0.01     0.14   0.04   0.00
   6   1     0.03   0.01  -0.02    -0.02  -0.02  -0.01     0.04   0.01  -0.00
   7   1    -0.00  -0.04  -0.03    -0.01  -0.02  -0.01     0.06   0.02   0.02
   8   7     0.07  -0.03  -0.07    -0.02   0.00  -0.01     0.08  -0.03   0.06
   9   6     0.11   0.04  -0.02     0.01  -0.10  -0.04    -0.02  -0.11  -0.02
  10   1     0.04   0.02  -0.01     0.01  -0.01  -0.01    -0.02  -0.04   0.01
  11   1     0.02   0.01   0.02     0.03  -0.05  -0.02    -0.00  -0.03  -0.03
  12   1     0.04   0.02  -0.01    -0.02  -0.05  -0.01    -0.02  -0.04  -0.00
  13   6     0.11  -0.04  -0.16    -0.14   0.05   0.06     0.06  -0.05   0.19
  14   1     0.04   0.00  -0.05    -0.06  -0.02   0.04     0.01  -0.02   0.06
  15   1     0.02  -0.03  -0.06    -0.06   0.04   0.02     0.03   0.01   0.07
  16   1     0.04  -0.01  -0.05    -0.03   0.02   0.01     0.00  -0.03   0.07
  17   6     0.01  -0.08  -0.07     0.07   0.12  -0.04     0.11   0.01   0.07
  18   1     0.01  -0.03  -0.03     0.01   0.03  -0.00     0.02  -0.01   0.04
  19   1    -0.00  -0.04  -0.03     0.02   0.06   0.00     0.05   0.02   0.04
  20   1    -0.01  -0.02  -0.01     0.04   0.03  -0.04     0.03   0.01  -0.01
  21   1    -0.02   0.05   0.02    -0.01  -0.01  -0.01     0.01   0.03  -0.08
  22   6     0.12  -0.01  -0.03    -0.01   0.15   0.05    -0.06  -0.07   0.04
  23   8     0.00  -0.14  -0.14    -0.02   0.22   0.11     0.21   0.11   0.19
  24   7     0.23   0.04   0.07    -0.13   0.10  -0.06    -0.18  -0.14  -0.05
  25   1     0.05  -0.00   0.01    -0.05   0.02  -0.02    -0.01  -0.01   0.01
  26   1     0.09   0.04   0.04    -0.04   0.01  -0.03    -0.10  -0.08  -0.03
  27   7     0.20   0.10  -0.01     0.12   0.17   0.11    -0.28  -0.25  -0.04
  28   1     0.08   0.05   0.02     0.03   0.04   0.02    -0.12  -0.09  -0.04
  29   1     0.03   0.01  -0.02     0.05   0.06   0.05    -0.05  -0.05   0.00
  30   6    -0.10   0.04   0.04     0.05  -0.07  -0.08    -0.03   0.07   0.05
  31   8     0.03   0.00   0.00    -0.10  -0.01  -0.07     0.04   0.07   0.02
  32   7    -0.31   0.21   0.10     0.31  -0.27  -0.12    -0.13   0.16   0.10
  33   1    -0.10   0.08   0.03     0.09  -0.08  -0.03    -0.03   0.05   0.03
  34   1    -0.11   0.06   0.04     0.11  -0.07  -0.04    -0.04   0.04   0.03
  35   7    -0.04  -0.07   0.04    -0.04   0.04  -0.09    -0.04   0.02   0.05
  36   1    -0.05  -0.00   0.02     0.04  -0.02  -0.03    -0.03   0.01   0.02
  37   1     0.01  -0.04  -0.00    -0.02   0.02  -0.01    -0.00  -0.01   0.00
  38   6    -0.08   0.04   0.04    -0.04   0.02   0.02    -0.04   0.06   0.01
  39   8    -0.12   0.13  -0.09     0.01   0.01  -0.09     0.03   0.11  -0.26
  40   7    -0.08  -0.03   0.41    -0.17  -0.09   0.43    -0.12   0.00   0.25
  41   1    -0.02   0.00   0.14    -0.05  -0.04   0.13    -0.02   0.01   0.03
  42   1    -0.01  -0.02   0.13    -0.06  -0.01   0.11    -0.04  -0.00   0.11
  43   7    -0.08   0.01  -0.16     0.02   0.14  -0.25    -0.05   0.08   0.11
  44   1    -0.01  -0.02  -0.01    -0.01   0.03  -0.03    -0.03   0.01   0.08
  45   1    -0.02   0.01  -0.11     0.03   0.05  -0.13     0.00   0.03  -0.02
  46   6     0.01  -0.08  -0.07     0.02  -0.04   0.00     0.03  -0.06  -0.10
  47   8     0.05  -0.17  -0.10    -0.00   0.05   0.02     0.02  -0.07  -0.07
  48   7    -0.01  -0.01  -0.04    -0.01  -0.07   0.01     0.04   0.01  -0.08
  49   1     0.00  -0.01  -0.01    -0.01  -0.01   0.00     0.02   0.01  -0.01
  50   1    -0.01   0.01  -0.01     0.01  -0.04   0.00     0.02  -0.00  -0.03
  51   7    -0.00  -0.06  -0.07     0.10  -0.16  -0.01     0.05  -0.14  -0.17
  52   1    -0.01   0.00  -0.02     0.02  -0.04   0.00     0.01  -0.02  -0.05
  53   1     0.00  -0.03  -0.03     0.02  -0.03   0.00     0.00  -0.04  -0.05
                      7                      8                      9
                        a                      a                      a 
 Frequencies --    48.0848                54.5808                55.1969
 Red. masses --    12.6789                13.0568                11.8691
 Frc consts  --     0.0000                 0.0000                 0.0000
 IR Inten    --     2.6987                 3.8635                 0.6535
 Raman Activ --     0.0000                 0.0000                 0.0000
 Depolar     --     0.0000                 0.0000                 0.0000
 Atom AN      X      Y      Z        X      Y      Z        X      Y      Z
   1   8     0.06  -0.03  -0.14     0.13  -0.17  -0.17    -0.00  -0.05  -0.23
   2   6     0.06  -0.00  -0.10     0.10  -0.05  -0.12    -0.09   0.20  -0.19
   3   1     0.03   0.01  -0.02     0.04  -0.00  -0.04    -0.03   0.08  -0.13
   4   1     0.02  -0.01  -0.03     0.03  -0.01  -0.03    -0.05   0.11  -0.02
   5   6     0.01   0.04  -0.10     0.02  -0.01  -0.06    -0.09   0.14  -0.01
   6   1    -0.01   0.01  -0.04    -0.01  -0.02  -0.02    -0.02   0.03   0.02
   7   1     0.01   0.01  -0.03     0.01   0.01  -0.01    -0.02   0.06   0.01
   8   7    -0.02   0.12  -0.05     0.01   0.03  -0.03    -0.14  -0.00  -0.01
   9   6    -0.04   0.18  -0.03    -0.02   0.06  -0.03    -0.19   0.02  -0.02
  10   1    -0.01   0.05  -0.00    -0.01   0.02  -0.00    -0.06  -0.03  -0.01
  11   1    -0.02   0.05  -0.00    -0.01   0.02  -0.01    -0.09   0.03  -0.02
  12   1    -0.00   0.06  -0.02    -0.01   0.02  -0.02    -0.02   0.02   0.00
  13   6    -0.04   0.14  -0.10    -0.00   0.03  -0.05     0.01  -0.08   0.02
  14   1    -0.02   0.05  -0.06    -0.00   0.02  -0.03     0.02   0.00  -0.00
  15   1     0.00   0.02  -0.03     0.01  -0.00  -0.02     0.03  -0.04   0.01
  16   1    -0.02   0.06  -0.01    -0.01   0.02  -0.00    -0.01  -0.05   0.02
  17   6     0.01   0.09   0.04     0.03   0.01   0.02    -0.23  -0.10  -0.02
  18   1     0.00   0.05   0.02     0.01   0.02   0.01    -0.06  -0.04  -0.02
  19   1     0.00   0.01   0.00     0.01  -0.01   0.00    -0.07  -0.05  -0.01
  20   1     0.01   0.02   0.03     0.01  -0.00   0.02    -0.09  -0.02   0.01
  21   1     0.01  -0.01  -0.04     0.03  -0.04  -0.02    -0.01  -0.03  -0.01
  22   6     0.08  -0.08  -0.07     0.01   0.01  -0.04    -0.00  -0.06   0.02
  23   8     0.09  -0.18  -0.17     0.07   0.01  -0.05    -0.04  -0.10   0.00
  24   7     0.24  -0.01   0.10    -0.12  -0.08  -0.06     0.07  -0.02   0.06
  25   1     0.07  -0.03   0.03    -0.03  -0.03  -0.01     0.02  -0.00   0.02
  26   1     0.04   0.00   0.04    -0.04  -0.02  -0.01     0.03   0.00   0.02
  27   7    -0.06  -0.04  -0.15     0.07   0.08  -0.03    -0.04  -0.08   0.01
  28   1    -0.01   0.00  -0.02    -0.00   0.02  -0.01    -0.00  -0.02   0.01
  29   1    -0.04  -0.03  -0.07     0.04   0.04  -0.01    -0.02  -0.03  -0.00
  30   6    -0.05  -0.07   0.06    -0.02  -0.12   0.03     0.05   0.08   0.01
  31   8     0.16  -0.27   0.13    -0.00  -0.16   0.03     0.04   0.07   0.04
  32   7     0.06  -0.17   0.03    -0.24   0.00   0.01    -0.02   0.11  -0.04
  33   1     0.08  -0.10   0.00    -0.07   0.00   0.00    -0.02   0.03  -0.01
  34   1    -0.04  -0.01  -0.01    -0.04  -0.01   0.00     0.00   0.03  -0.02
  35   7    -0.42   0.22   0.06     0.20  -0.26   0.03     0.14   0.08   0.01
  36   1    -0.12   0.08   0.01     0.01  -0.04   0.01     0.03   0.03  -0.00
  37   1    -0.09   0.05   0.03     0.03  -0.06   0.01     0.03   0.03   0.01
  38   6     0.00   0.05   0.02     0.11   0.05   0.04     0.08  -0.14   0.01
  39   8     0.08   0.02  -0.08     0.23  -0.04   0.02     0.04  -0.13   0.08
  40   7    -0.09   0.02   0.07    -0.06  -0.01   0.20     0.09  -0.20   0.28
  41   1    -0.02  -0.00  -0.00    -0.03  -0.03   0.04     0.03  -0.05   0.07
  42   1    -0.04   0.02   0.03    -0.04   0.02   0.03     0.04  -0.05   0.01
  43   7     0.02   0.12   0.10     0.18   0.24  -0.07     0.13  -0.12  -0.33
  44   1    -0.01   0.04   0.05     0.02   0.08   0.00     0.04  -0.05  -0.07
  45   1     0.02   0.04   0.02     0.08   0.07  -0.03     0.03  -0.03  -0.10
  46   6    -0.03  -0.04   0.09    -0.14   0.07   0.07     0.05   0.09   0.08
  47   8    -0.09   0.09   0.15    -0.16  -0.02   0.12     0.05   0.16   0.08
  48   7    -0.06  -0.04   0.10    -0.01  -0.05   0.01    -0.05   0.21   0.15
  49   1    -0.02  -0.02   0.03     0.02  -0.04   0.00    -0.01   0.05   0.03
  50   1     0.01  -0.06   0.01    -0.00  -0.00  -0.01    -0.00   0.03   0.03
  51   7     0.05  -0.19   0.05    -0.34   0.35   0.13     0.16  -0.07   0.05
  52   1     0.02  -0.06   0.01    -0.06   0.06   0.02     0.04  -0.02   0.02
  53   1     0.01  -0.03   0.02    -0.10   0.08   0.03     0.05  -0.02   0.01
                     10                     11                     12
                        a                      a                      a 
 Frequencies --    63.0661                66.0411                71.6333
 Red. masses --    12.1697                12.6606                13.0673
 Frc consts  --     0.0000                 0.0000                 0.0000
 IR Inten    --     1.7522                 1.3894                 0.6764
 Raman Activ --     0.0000                 0.0000                 0.0000
 Depolar     --     0.0000                 0.0000                 0.0000
 Atom AN      X      Y      Z        X      Y      Z        X      Y      Z
   1   8     0.07  -0.17  -0.00    -0.08   0.13  -0.01     0.08  -0.10   0.01
   2   6     0.06  -0.07   0.03    -0.03  -0.03  -0.02    -0.01   0.03  -0.01
   3   1     0.04  -0.01   0.01    -0.01  -0.02   0.03    -0.00   0.02  -0.04
   4   1     0.02  -0.03   0.01     0.00  -0.04  -0.02    -0.02   0.03   0.02
   5   6    -0.03  -0.01   0.05    -0.00  -0.02  -0.13    -0.00   0.01   0.04
   6   1    -0.02  -0.01   0.01    -0.00   0.01  -0.07     0.01  -0.01   0.03
   7   1    -0.01   0.00   0.02     0.01  -0.04  -0.04    -0.01   0.02   0.01
   8   7    -0.03   0.08   0.09    -0.04   0.07  -0.06     0.03  -0.06  -0.02
   9   6    -0.04   0.22   0.15    -0.08   0.17  -0.03     0.05  -0.01   0.01
  10   1    -0.01   0.05   0.04    -0.03   0.05   0.00     0.02  -0.02  -0.01
  11   1    -0.04   0.08   0.07    -0.03   0.05   0.01    -0.01   0.01   0.01
  12   1     0.02   0.10   0.03    -0.02   0.06  -0.02     0.04   0.01   0.01
  13   6     0.01   0.09  -0.07    -0.04   0.08  -0.14     0.12  -0.09  -0.06
  14   1     0.01   0.05  -0.05    -0.01   0.04  -0.07     0.05  -0.01  -0.02
  15   1     0.01  -0.01  -0.03     0.00  -0.00  -0.05     0.04  -0.04  -0.02
  16   1    -0.01   0.04  -0.01    -0.02   0.04  -0.03     0.03  -0.04  -0.02
  17   6    -0.05  -0.02   0.19    -0.02   0.01   0.06    -0.06  -0.12  -0.05
  18   1    -0.00   0.03   0.05    -0.02   0.01   0.03    -0.00  -0.04  -0.03
  19   1    -0.03  -0.05   0.03     0.01  -0.02   0.01    -0.03  -0.05  -0.03
  20   1    -0.01  -0.02   0.11    -0.01   0.00   0.03    -0.03  -0.03   0.01
  21   1     0.00  -0.06  -0.01    -0.01   0.04  -0.02     0.01  -0.03   0.03
  22   6    -0.04   0.01  -0.01     0.01  -0.09  -0.03    -0.05  -0.07  -0.01
  23   8    -0.17  -0.08  -0.09     0.17  -0.10  -0.05    -0.06  -0.12  -0.05
  24   7    -0.02   0.02   0.02    -0.42  -0.37  -0.11    -0.31  -0.24  -0.08
  25   1    -0.02  -0.00  -0.00    -0.08  -0.09  -0.01    -0.06  -0.05  -0.01
  26   1     0.03   0.03   0.02    -0.09  -0.07  -0.01    -0.04  -0.03  -0.01
  27   7     0.08   0.12   0.04     0.24   0.14   0.05     0.19   0.10   0.08
  28   1     0.04   0.04   0.02     0.00   0.03   0.01     0.03   0.03   0.02
  29   1     0.01   0.02   0.00     0.11   0.08   0.02     0.07   0.04   0.03
  30   6     0.05  -0.01  -0.01     0.05   0.05   0.08    -0.07   0.08   0.08
  31   8    -0.07   0.08  -0.02     0.04   0.05   0.12    -0.06   0.15   0.01
  32   7    -0.01   0.04  -0.01     0.02   0.06   0.05     0.22  -0.05   0.19
  33   1    -0.04   0.03   0.00    -0.02   0.02   0.01     0.05   0.01   0.05
  34   1     0.03  -0.01   0.00    -0.00   0.02   0.01    -0.01   0.01   0.06
  35   7     0.30  -0.17  -0.00     0.13   0.05   0.09    -0.41   0.19   0.06
  36   1     0.07  -0.04   0.00     0.03   0.02   0.02    -0.05   0.00   0.03
  37   1     0.04  -0.03  -0.01     0.03   0.02   0.03    -0.07   0.02  -0.00
  38   6    -0.01  -0.01  -0.03    -0.06  -0.01  -0.03     0.10   0.02   0.04
  39   8     0.14  -0.08  -0.23    -0.14   0.07  -0.04     0.16  -0.04   0.06
  40   7    -0.18  -0.04  -0.06     0.04   0.02  -0.04     0.03   0.00   0.04
  41   1    -0.05  -0.04  -0.05     0.02   0.02  -0.00     0.00  -0.01   0.00
  42   1    -0.08   0.00   0.03     0.03  -0.01  -0.00    -0.00   0.01  -0.00
  43   7    -0.00   0.11   0.23    -0.10  -0.12  -0.03     0.13   0.10   0.03
  44   1    -0.03   0.05   0.08    -0.01  -0.05  -0.01     0.02   0.04   0.01
  45   1     0.04   0.04   0.05    -0.05  -0.04  -0.01     0.05   0.03   0.01
  46   6    -0.02  -0.03  -0.08     0.07  -0.02   0.08    -0.02   0.03  -0.10
  47   8    -0.03  -0.01  -0.08    -0.02   0.18   0.19     0.09  -0.17  -0.23
  48   7    -0.17   0.26   0.05     0.19  -0.22  -0.02    -0.12   0.23  -0.02
  49   1    -0.04   0.05   0.00     0.03  -0.01   0.02    -0.02   0.04  -0.01
  50   1    -0.02   0.01  -0.01     0.05  -0.05  -0.00    -0.04   0.07   0.00
  51   7     0.13  -0.33  -0.20     0.11  -0.12   0.01    -0.05   0.13  -0.04
  52   1     0.03  -0.07  -0.06     0.03  -0.03  -0.00    -0.02   0.04  -0.01
  53   1     0.05  -0.11  -0.07    -0.00   0.01   0.03     0.02  -0.02  -0.04
                     13                     14                     15
                        a                      a                      a 
 Frequencies --    78.8181                83.3747                92.8792
 Red. masses --    10.9403                12.6080                13.4476
 Frc consts  --     0.0000                 0.0000                 0.0000
 IR Inten    --     1.1628                 8.4528                 3.3317
 Raman Activ --     0.0000                 0.0000                 0.0000
 Depolar     --     0.0000                 0.0000                 0.0000
 Atom AN      X      Y      Z        X      Y      Z        X      Y      Z
   1   8     0.07   0.02  -0.10     0.11  -0.08   0.03    -0.01   0.06  -0.11
   2   6     0.08   0.06  -0.05     0.02   0.08   0.01     0.03   0.01  -0.07
   3   1     0.01   0.02  -0.03     0.02   0.04  -0.03     0.01   0.00  -0.00
   4   1     0.03   0.05  -0.01    -0.01   0.04   0.02     0.02  -0.01  -0.03
   5   6     0.14  -0.01   0.02    -0.01   0.11   0.03    -0.01   0.04  -0.08
   6   1     0.05   0.01  -0.01    -0.01   0.02   0.03    -0.02   0.01  -0.03
   7   1     0.06  -0.01   0.01    -0.02   0.05   0.01     0.00   0.00  -0.02
   8   7     0.07  -0.07   0.10     0.07   0.14  -0.05    -0.04   0.09  -0.03
   9   6    -0.07   0.18   0.15     0.15   0.07  -0.03    -0.05   0.09  -0.04
  10   1    -0.04   0.01   0.05     0.06   0.02  -0.03    -0.02   0.03  -0.01
  11   1    -0.08   0.09   0.06     0.05   0.02  -0.01    -0.01   0.03  -0.01
  12   1     0.03   0.11   0.02     0.05   0.01   0.01    -0.02   0.03  -0.01
  13   6     0.26  -0.14  -0.06     0.03   0.14  -0.04    -0.08   0.11  -0.03
  14   1     0.10   0.01  -0.06     0.01   0.03  -0.01    -0.03   0.03  -0.01
  15   1     0.11  -0.10  -0.03     0.00   0.05  -0.01    -0.02   0.03  -0.01
  16   1     0.06  -0.05   0.01     0.02   0.04  -0.02    -0.03   0.04  -0.00
  17   6    -0.07  -0.31   0.24     0.06   0.18  -0.12     0.01   0.10   0.02
  18   1    -0.02  -0.09   0.07     0.03   0.06  -0.05    -0.00   0.04   0.01
  19   1    -0.01  -0.15   0.05     0.00   0.07  -0.04     0.01   0.02   0.00
  20   1    -0.06  -0.08   0.12     0.03   0.05  -0.04     0.01   0.02   0.01
  21   1     0.01  -0.00  -0.02    -0.01  -0.06   0.02     0.02   0.03  -0.02
  22   6    -0.03   0.11   0.00     0.09  -0.08  -0.01     0.03  -0.11  -0.00
  23   8     0.03   0.08  -0.05     0.18  -0.00   0.07    -0.08  -0.15  -0.00
  24   7     0.02   0.14   0.11     0.05  -0.10  -0.07     0.18  -0.02  -0.00
  25   1    -0.00   0.02   0.03     0.03  -0.01  -0.01     0.02   0.01  -0.02
  26   1    -0.02   0.03   0.03     0.01  -0.04  -0.03     0.07   0.00  -0.00
  27   7    -0.14   0.17  -0.06     0.04  -0.18  -0.02     0.02  -0.20   0.00
  28   1    -0.04   0.06  -0.00    -0.00  -0.06  -0.02     0.03  -0.06  -0.00
  29   1    -0.04   0.05  -0.04     0.02  -0.04   0.01    -0.02  -0.07   0.00
  30   6    -0.05   0.03  -0.05     0.02   0.05   0.03    -0.11   0.06  -0.03
  31   8    -0.16   0.09  -0.05     0.00   0.13  -0.02    -0.43   0.40  -0.20
  32   7     0.08  -0.07  -0.06     0.06   0.08   0.11     0.19  -0.05   0.16
  33   1     0.02  -0.02  -0.02     0.00   0.05   0.03    -0.03   0.09   0.06
  34   1     0.04  -0.02  -0.02     0.01   0.01   0.04     0.05  -0.04   0.08
  35   7    -0.08   0.05  -0.05     0.05  -0.04   0.03    -0.03  -0.20  -0.04
  36   1     0.01  -0.01  -0.01     0.02  -0.02   0.02     0.08  -0.13   0.01
  37   1    -0.02   0.01  -0.01     0.01  -0.01  -0.00    -0.02  -0.05  -0.03
  38   6    -0.09  -0.01   0.02    -0.21  -0.10   0.04     0.10   0.07   0.03
  39   8    -0.08  -0.09   0.15    -0.16  -0.33   0.33     0.06   0.15   0.03
  40   7    -0.15  -0.02   0.00    -0.39  -0.12  -0.11     0.18   0.09   0.08
  41   1    -0.05  -0.02   0.00    -0.12  -0.08  -0.01     0.06   0.04   0.02
  42   1    -0.04   0.01  -0.04    -0.12   0.01  -0.10     0.06   0.01   0.02
  43   7    -0.06   0.08  -0.09    -0.14   0.13  -0.16     0.09   0.01   0.02
  44   1    -0.02   0.03  -0.03    -0.06   0.07  -0.07     0.03  -0.01   0.01
  45   1    -0.01   0.02   0.00    -0.01   0.03   0.02     0.01  -0.00  -0.00
  46   6     0.04  -0.05  -0.04    -0.01  -0.03  -0.00    -0.02  -0.12   0.07
  47   8     0.01   0.05  -0.03     0.01  -0.05  -0.04    -0.02  -0.14   0.07
  48   7     0.14  -0.34  -0.15    -0.03  -0.01   0.01     0.02  -0.22   0.03
  49   1     0.01  -0.05  -0.03    -0.02   0.01   0.01    -0.03  -0.01   0.02
  50   1     0.02  -0.07  -0.02    -0.02   0.02   0.01    -0.01  -0.03   0.03
  51   7     0.01   0.05   0.04    -0.01  -0.02   0.02    -0.04  -0.07   0.10
  52   1     0.02  -0.02   0.01     0.01  -0.03  -0.00    -0.01  -0.02   0.03
  53   1    -0.00   0.04   0.02     0.02  -0.03  -0.01    -0.01  -0.02   0.03
                     16                     17                     18
                        a                      a                      a 
 Frequencies --    96.0595               105.1600               106.0194
 Red. masses --    12.7523                12.3153                12.7567
 Frc consts  --     0.0000                 0.0000                 0.0000
 IR Inten    --     9.5963                 9.9397                 1.7838
 Raman Activ --     0.0000                 0.0000                 0.0000
 Depolar     --     0.0000                 0.0000                 0.0000
 Atom AN      X      Y      Z        X      Y      Z        X      Y      Z
   1   8    -0.05  -0.06   0.14     0.01  -0.04   0.17    -0.08  -0.02  -0.14
   2   6    -0.11  -0.16   0.02    -0.12   0.06   0.06     0.04  -0.08  -0.05
   3   1    -0.04  -0.05   0.02    -0.04   0.03  -0.03     0.02  -0.03   0.03
   4   1    -0.05  -0.07   0.01    -0.07   0.04   0.05     0.04  -0.05  -0.04
   5   6    -0.08  -0.11  -0.17    -0.08   0.04   0.05    -0.01  -0.05  -0.04
   6   1    -0.02  -0.01  -0.08    -0.01   0.01   0.04    -0.02  -0.01  -0.05
   7   1    -0.03  -0.07  -0.06    -0.04   0.02   0.01     0.02  -0.03  -0.00
   8   7    -0.09   0.00  -0.15    -0.03  -0.02  -0.03    -0.11   0.05   0.11
   9   6    -0.07   0.17  -0.06     0.02   0.08   0.04    -0.20   0.12   0.09
  10   1    -0.02   0.07  -0.01     0.01   0.01  -0.01    -0.07   0.03   0.04
  11   1    -0.03   0.05   0.02    -0.02   0.04   0.04    -0.07   0.04   0.03
  12   1    -0.01   0.07  -0.04     0.04   0.05   0.02    -0.05   0.05   0.01
  13   6    -0.06   0.03  -0.29     0.12  -0.08  -0.13    -0.17   0.09   0.07
  14   1    -0.02   0.03  -0.11     0.07   0.00  -0.03    -0.06   0.02   0.01
  15   1    -0.01  -0.03  -0.10     0.02  -0.04  -0.05    -0.05   0.02   0.02
  16   1    -0.03   0.03  -0.07     0.04  -0.04  -0.06    -0.05   0.05   0.03
  17   6    -0.09  -0.08  -0.02    -0.18  -0.14  -0.08    -0.02   0.04   0.27
  18   1    -0.04  -0.02   0.01    -0.04  -0.06  -0.04    -0.02   0.03   0.10
  19   1    -0.00  -0.05  -0.01    -0.06  -0.06  -0.04     0.02  -0.01   0.08
  20   1    -0.04  -0.02   0.01    -0.08  -0.03   0.00     0.01   0.00   0.08
  21   1    -0.00  -0.00   0.03    -0.01  -0.03   0.05     0.00   0.02  -0.02
  22   6     0.11   0.05   0.16     0.04   0.09  -0.07     0.01   0.08  -0.13
  23   8     0.48   0.21   0.28    -0.01   0.32   0.15    -0.06   0.19  -0.05
  24   7     0.02  -0.00   0.18     0.02   0.13  -0.37    -0.01   0.10  -0.30
  25   1     0.02  -0.00   0.06     0.01   0.07  -0.10    -0.00   0.04  -0.08
  26   1    -0.08  -0.05   0.03     0.01  -0.01  -0.13     0.00   0.01  -0.10
  27   7    -0.21  -0.07   0.04     0.11  -0.22  -0.01     0.10  -0.04  -0.09
  28   1    -0.11  -0.03  -0.01     0.05  -0.10  -0.05     0.04  -0.03  -0.04
  29   1    -0.01   0.02   0.01     0.04  -0.06   0.06     0.03  -0.01   0.01
  30   6    -0.02  -0.01   0.00    -0.01  -0.01  -0.01     0.04  -0.06   0.02
  31   8    -0.09  -0.00   0.04     0.12   0.02  -0.13     0.22  -0.13  -0.02
  32   7    -0.02  -0.04  -0.04    -0.00   0.06   0.13    -0.06   0.04   0.10
  33   1     0.00  -0.02  -0.01     0.04   0.03   0.04     0.02   0.00   0.03
  34   1     0.03  -0.02  -0.02    -0.02   0.01   0.06    -0.04   0.01   0.04
  35   7     0.03  -0.01   0.01    -0.15  -0.06  -0.03    -0.08  -0.06   0.02
  36   1     0.02  -0.01  -0.00    -0.06  -0.02   0.01    -0.04  -0.01   0.01
  37   1     0.01  -0.00   0.00    -0.04  -0.02  -0.01     0.01  -0.04  -0.00
  38   6     0.07   0.02   0.02     0.05  -0.02  -0.04    -0.01   0.02   0.08
  39   8     0.07   0.02   0.06     0.12  -0.03  -0.19    -0.10   0.04   0.28
  40   7     0.09   0.03  -0.02    -0.02  -0.04  -0.02     0.08   0.05   0.03
  41   1     0.02   0.00   0.01    -0.01  -0.02  -0.01     0.02   0.03   0.02
  42   1     0.02   0.01   0.00    -0.02  -0.01   0.03     0.04   0.01  -0.05
  43   7     0.08   0.01   0.03     0.05   0.02   0.09    -0.01  -0.03  -0.10
  44   1     0.02   0.01  -0.00     0.00   0.02   0.03     0.01  -0.02  -0.04
  45   1     0.02   0.00   0.01     0.03   0.01   0.00    -0.03  -0.02   0.01
  46   6    -0.00  -0.00  -0.06    -0.01  -0.02   0.11     0.10  -0.10  -0.04
  47   8     0.08  -0.09  -0.18    -0.12   0.05   0.31     0.23  -0.34  -0.16
  48   7    -0.13   0.11   0.01     0.16  -0.05   0.07     0.04   0.06   0.03
  49   1    -0.03   0.02  -0.01     0.05  -0.01   0.03     0.03  -0.00   0.00
  50   1    -0.04   0.03   0.02     0.06  -0.02  -0.01    -0.01   0.06   0.03
  51   7     0.04   0.00   0.02    -0.05  -0.10  -0.05     0.07   0.01   0.01
  52   1    -0.00   0.01   0.02     0.00  -0.02  -0.04     0.00   0.02   0.01
  53   1     0.04  -0.02  -0.01    -0.06  -0.01   0.00     0.04  -0.04  -0.02
                     19                     20                     21
                        a                      a                      a 
 Frequencies --   122.5641               130.2421               139.5015
 Red. masses --    12.6702                12.7429                12.7570
 Frc consts  --     0.0000                 0.0000                 0.0000
 IR Inten    --     5.9655                18.5281                30.1370
 Raman Activ --     0.0000                 0.0000                 0.0000
 Depolar     --     0.0000                 0.0000                 0.0000
 Atom AN      X      Y      Z        X      Y      Z        X      Y      Z
   1   8    -0.05   0.00  -0.07     0.02   0.02   0.20    -0.00   0.01   0.16
   2   6     0.10  -0.18   0.01    -0.09   0.03   0.08    -0.15   0.17   0.07
   3   1     0.03  -0.07   0.07    -0.04   0.01  -0.01    -0.04   0.07  -0.04
   4   1     0.07  -0.09  -0.03    -0.05   0.03   0.04    -0.08   0.08   0.05
   5   6     0.09  -0.14  -0.04     0.00  -0.02   0.02    -0.13   0.15   0.10
   6   1     0.02  -0.03  -0.03     0.02   0.02  -0.01    -0.04   0.04   0.04
   7   1     0.04  -0.05  -0.01     0.02  -0.03   0.00    -0.04   0.05   0.03
   8   7     0.06  -0.10   0.02    -0.07  -0.09   0.08    -0.14   0.10   0.09
   9   6     0.00  -0.06   0.01    -0.12  -0.19   0.01    -0.09   0.01   0.06
  10   1    -0.01  -0.01   0.02    -0.04  -0.02   0.03    -0.02  -0.02  -0.00
  11   1     0.00  -0.02   0.00     0.01  -0.08  -0.02    -0.04   0.02   0.01
  12   1    -0.00  -0.01  -0.01    -0.09  -0.08  -0.01    -0.01  -0.00   0.04
  13   6     0.02  -0.07   0.00    -0.10  -0.10   0.21    -0.12   0.07   0.15
  14   1    -0.00  -0.02  -0.01    -0.03  -0.04   0.07    -0.03   0.01   0.06
  15   1     0.01  -0.02  -0.00    -0.02  -0.00   0.07    -0.04   0.04   0.05
  16   1     0.00  -0.01   0.01    -0.03  -0.04   0.06    -0.03   0.01   0.04
  17   6     0.11  -0.09   0.10    -0.02  -0.03   0.06    -0.16   0.13  -0.00
  18   1     0.02  -0.01   0.05    -0.03  -0.05   0.04    -0.04   0.02  -0.01
  19   1     0.05  -0.03   0.03     0.03   0.03   0.05    -0.05   0.05   0.01
  20   1     0.04  -0.03   0.03    -0.01   0.00  -0.04    -0.05   0.04  -0.02
  21   1    -0.02   0.00  -0.07     0.00   0.00   0.07    -0.04  -0.04   0.03
  22   6     0.08   0.02  -0.11     0.14   0.03  -0.19     0.06  -0.02  -0.04
  23   8     0.19   0.04  -0.13     0.36   0.02  -0.27     0.19  -0.06  -0.12
  24   7     0.05   0.00  -0.08     0.04  -0.05  -0.09     0.02  -0.06   0.08
  25   1     0.02  -0.00  -0.02     0.03  -0.03  -0.01     0.00  -0.04   0.02
  26   1    -0.01  -0.01  -0.02    -0.03  -0.01  -0.02    -0.03  -0.02   0.03
  27   7    -0.00   0.05  -0.16    -0.01   0.16  -0.30    -0.04   0.12  -0.11
  28   1    -0.02   0.02  -0.04    -0.04   0.06  -0.06    -0.03   0.05  -0.01
  29   1     0.01   0.03  -0.05     0.03   0.07  -0.11     0.00   0.05  -0.06
  30   6    -0.05   0.06  -0.03    -0.00   0.04   0.01    -0.03  -0.02  -0.01
  31   8    -0.15   0.17  -0.08    -0.04   0.12  -0.04    -0.09  -0.01   0.01
  32   7     0.08   0.00   0.01     0.03   0.06   0.08    -0.03  -0.05  -0.06
  33   1    -0.01   0.03   0.01     0.01   0.04   0.02    -0.01  -0.03  -0.02
  34   1     0.01   0.00   0.01     0.01   0.00   0.03     0.02  -0.02  -0.02
  35   7    -0.06   0.04  -0.04     0.03  -0.05   0.00    -0.02   0.01  -0.01
  36   1     0.03  -0.02  -0.01     0.00  -0.02   0.01     0.03  -0.01  -0.01
  37   1    -0.00   0.00  -0.01    -0.02   0.00  -0.01     0.02  -0.01   0.01
  38   6    -0.11  -0.06  -0.10     0.07   0.02   0.08     0.03  -0.07  -0.11
  39   8    -0.11  -0.04  -0.24     0.08  -0.03   0.23     0.14  -0.11  -0.33
  40   7    -0.12  -0.09  -0.06     0.07   0.04   0.01    -0.11  -0.12  -0.04
  41   1    -0.04  -0.03  -0.00     0.02   0.01   0.01    -0.04  -0.05  -0.02
  42   1    -0.04  -0.03   0.04     0.02   0.02  -0.04    -0.06  -0.02   0.05
  43   7    -0.15  -0.13  -0.01     0.11   0.09   0.01     0.04   0.01   0.09
  44   1    -0.03  -0.04  -0.01     0.02   0.03  -0.00    -0.01   0.02   0.03
  45   1    -0.04  -0.03  -0.05     0.03   0.02   0.04     0.04   0.02  -0.03
  46   6     0.02   0.12   0.22    -0.12  -0.01  -0.04     0.17  -0.07  -0.01
  47   8     0.09  -0.04   0.20    -0.22   0.15   0.03     0.26  -0.27  -0.05
  48   7    -0.05   0.34   0.33    -0.12   0.01  -0.05     0.26  -0.14  -0.04
  49   1     0.01   0.05   0.07    -0.04   0.02  -0.00     0.07  -0.02  -0.00
  50   1    -0.01   0.10   0.08    -0.02  -0.02  -0.03     0.05   0.02   0.00
  51   7    -0.04   0.17   0.22    -0.02  -0.22  -0.14     0.02   0.19   0.07
  52   1    -0.02   0.06   0.05    -0.00  -0.06  -0.04     0.00   0.06   0.01
  53   1    -0.00   0.01   0.04    -0.01  -0.04  -0.03     0.00   0.02   0.01
                     22                     23                     24
                        a                      a                      a 
 Frequencies --   155.0019               176.5441               183.3226
 Red. masses --    12.4211                11.0074                12.8294
 Frc consts  --     0.0000                 0.0000                 0.0000
 IR Inten    --     5.1115                 8.4172                 6.9030
 Raman Activ --     0.0000                 0.0000                 0.0000
 Depolar     --     0.0000                 0.0000                 0.0000
 Atom AN      X      Y      Z        X      Y      Z        X      Y      Z
   1   8     0.01   0.01  -0.01     0.14   0.32   0.24     0.07   0.17   0.12
   2   6     0.01  -0.00  -0.01    -0.04   0.08  -0.01    -0.02   0.05  -0.01
   3   1     0.00  -0.00   0.00    -0.05   0.00  -0.01    -0.03   0.00  -0.01
   4   1     0.00  -0.00  -0.01    -0.05   0.02   0.02    -0.02   0.01   0.01
   5   6     0.01   0.00  -0.03     0.17  -0.00  -0.28     0.09   0.00  -0.15
   6   1     0.00   0.00  -0.01     0.09   0.07  -0.15     0.05   0.04  -0.08
   7   1     0.00  -0.01  -0.01     0.10  -0.10  -0.10     0.05  -0.05  -0.05
   8   7     0.01   0.02  -0.01     0.01  -0.02  -0.10    -0.00   0.00  -0.06
   9   6     0.00   0.02  -0.01    -0.21   0.00  -0.18    -0.11   0.03  -0.09
  10   1     0.00   0.01  -0.00    -0.09   0.09   0.03    -0.05   0.05   0.01
  11   1     0.01   0.00  -0.00     0.02  -0.06  -0.07     0.01  -0.02  -0.03
  12   1    -0.00   0.00  -0.00    -0.16  -0.03  -0.13    -0.07  -0.00  -0.06
  13   6    -0.00   0.02  -0.01    -0.03  -0.03   0.04    -0.02   0.00  -0.00
  14   1     0.00   0.00   0.01    -0.01  -0.03   0.03    -0.01  -0.01   0.02
  15   1    -0.01   0.01  -0.00    -0.01   0.02   0.02    -0.02   0.02   0.00
  16   1     0.01   0.01  -0.01    -0.00  -0.02   0.00     0.00  -0.01  -0.01
  17   6     0.02   0.03  -0.00     0.10  -0.05   0.11     0.04  -0.02   0.06
  18   1     0.00   0.01   0.00    -0.05  -0.08   0.11    -0.03  -0.04   0.06
  19   1     0.01   0.01   0.00     0.14   0.01   0.08     0.07   0.01   0.04
  20   1     0.01   0.01  -0.01     0.00   0.01  -0.06     0.00   0.01  -0.03
  21   1     0.01   0.00   0.01    -0.00   0.05   0.01     0.00   0.03   0.01
  22   6    -0.03  -0.01   0.07    -0.05  -0.01  -0.01    -0.08  -0.01   0.11
  23   8     0.01  -0.07   0.02    -0.20   0.01   0.03    -0.08  -0.09   0.05
  24   7    -0.03  -0.03   0.16     0.02   0.05  -0.09    -0.09  -0.04   0.18
  25   1    -0.02  -0.02   0.04    -0.01   0.02  -0.03    -0.02  -0.00   0.05
  26   1    -0.02  -0.01   0.05     0.03   0.02  -0.03    -0.01   0.01   0.06
  27   7    -0.07   0.08   0.05     0.05  -0.12   0.06    -0.07   0.10   0.11
  28   1    -0.03   0.03   0.03     0.05  -0.04   0.00    -0.03   0.04   0.04
  29   1    -0.02   0.03  -0.01    -0.01  -0.05   0.04    -0.03   0.03   0.01
  30   6    -0.12  -0.14  -0.03    -0.07  -0.07   0.10     0.16   0.11  -0.19
  31   8    -0.15  -0.08  -0.14    -0.13  -0.06   0.11     0.32   0.07  -0.24
  32   7    -0.10  -0.15   0.04    -0.05  -0.10   0.08     0.08   0.21  -0.12
  33   1    -0.01  -0.03   0.01    -0.06  -0.01   0.02     0.11   0.03  -0.03
  34   1    -0.00  -0.06   0.03    -0.04  -0.01   0.02     0.04   0.04  -0.02
  35   7    -0.18  -0.23  -0.06    -0.02  -0.07   0.10    -0.01   0.09  -0.21
  36   1    -0.05  -0.07  -0.01     0.02  -0.03   0.02    -0.06   0.04  -0.03
  37   1    -0.04  -0.07  -0.01    -0.00  -0.02   0.03     0.00   0.02  -0.07
  38   6    -0.02   0.00   0.06     0.02  -0.08  -0.02     0.02  -0.03   0.01
  39   8    -0.06  -0.01   0.20     0.11  -0.19  -0.04     0.06  -0.09   0.05
  40   7     0.02   0.02   0.00    -0.12  -0.11  -0.08    -0.04  -0.04  -0.02
  41   1     0.01   0.01   0.00    -0.05  -0.06   0.01    -0.01  -0.02  -0.00
  42   1     0.02   0.01  -0.05    -0.06  -0.02   0.02    -0.02  -0.00  -0.02
  43   7    -0.00   0.00  -0.05     0.06   0.06   0.04     0.05   0.06   0.01
  44   1    -0.00  -0.00  -0.01    -0.00   0.05  -0.01    -0.00   0.03   0.01
  45   1    -0.01  -0.01   0.03     0.06   0.03  -0.00     0.03   0.02   0.02
  46   6     0.14   0.13  -0.03     0.05   0.09  -0.04    -0.07  -0.17   0.11
  47   8     0.04   0.05   0.28     0.07   0.16  -0.09    -0.08  -0.34   0.17
  48   7     0.41   0.33  -0.02    -0.03   0.05  -0.03     0.02   0.00   0.14
  49   1     0.14   0.08   0.02    -0.01   0.00  -0.02     0.02  -0.00   0.06
  50   1     0.11   0.13  -0.04    -0.00  -0.02  -0.00     0.00   0.04   0.02
  51   7     0.04   0.01  -0.39     0.13   0.08   0.06    -0.24  -0.09  -0.01
  52   1     0.05   0.02  -0.17     0.03  -0.00   0.04    -0.03  -0.03  -0.05
  53   1    -0.05  -0.02  -0.10     0.06   0.04   0.02    -0.07  -0.10  -0.03
                     25                     26                     27
                        a                      a                      a 
 Frequencies --   200.4868               222.9776               235.0221
 Red. masses --    12.2876                 9.2799                 3.2642
 Frc consts  --     0.0000                 0.0000                 0.0000
 IR Inten    --    75.7254                16.3566                98.4792
 Raman Activ --     0.0000                 0.0000                 0.0000
 Depolar     --     0.0000                 0.0000                 0.0000
 Atom AN      X      Y      Z        X      Y      Z        X      Y      Z
   1   8    -0.02  -0.04  -0.01    -0.45   0.39  -0.12     0.09  -0.13   0.04
   2   6    -0.01  -0.00   0.01    -0.02  -0.07   0.11    -0.04   0.03  -0.01
   3   1     0.00   0.00  -0.00    -0.00  -0.06   0.17    -0.02   0.02  -0.06
   4   1    -0.00  -0.00   0.00     0.10  -0.09  -0.06    -0.04   0.04   0.03
   5   6    -0.03   0.01   0.03    -0.02  -0.03   0.06     0.00  -0.00  -0.00
   6   1    -0.01  -0.00   0.01    -0.01  -0.02   0.02     0.01   0.01  -0.01
   7   1    -0.01   0.01   0.01    -0.02  -0.00   0.01     0.00  -0.01  -0.00
   8   7    -0.02   0.02   0.02     0.02  -0.01   0.02    -0.00   0.00   0.01
   9   6    -0.01  -0.00   0.02     0.04  -0.03   0.02     0.01   0.03   0.02
  10   1    -0.00  -0.00   0.00     0.01  -0.17  -0.06     0.01   0.11   0.05
  11   1    -0.00  -0.00   0.00    -0.13   0.09  -0.01     0.09  -0.06   0.02
  12   1    -0.01  -0.00   0.01     0.14   0.04   0.09    -0.08  -0.02  -0.04
  13   6    -0.02   0.02   0.02     0.02   0.00  -0.01    -0.01   0.01  -0.02
  14   1     0.00   0.01   0.01    -0.00   0.02  -0.05     0.01  -0.02   0.04
  15   1    -0.01   0.01   0.00     0.04  -0.03  -0.00    -0.05   0.03  -0.01
  16   1     0.00   0.00  -0.00    -0.02   0.01   0.03     0.03   0.00  -0.05
  17   6    -0.02   0.03   0.00     0.03   0.04  -0.03    -0.00  -0.01   0.03
  18   1    -0.00   0.01  -0.00     0.05   0.07  -0.05    -0.03  -0.05   0.04
  19   1    -0.01   0.01   0.00    -0.05  -0.01  -0.04     0.05   0.02   0.04
  20   1    -0.00   0.01  -0.00     0.04  -0.01   0.05    -0.02   0.02  -0.05
  21   1    -0.01  -0.02  -0.01    -0.12   0.11  -0.13     0.02  -0.04   0.04
  22   6    -0.03   0.01   0.07     0.00   0.00  -0.00     0.01   0.02   0.02
  23   8     0.05  -0.05   0.02     0.00   0.01   0.00     0.02   0.02   0.02
  24   7    -0.08  -0.06   0.12    -0.00   0.00  -0.00    -0.03  -0.01   0.01
  25   1     0.01   0.01   0.05    -0.00  -0.00  -0.00     0.03   0.02   0.02
  26   1     0.01   0.02   0.05    -0.01  -0.00  -0.00     0.06   0.05   0.03
  27   7    -0.08   0.12   0.03     0.00   0.00  -0.00    -0.05   0.01  -0.01
  28   1    -0.04   0.05   0.03     0.00   0.00   0.00     0.00   0.02   0.01
  29   1    -0.01   0.05  -0.02     0.00   0.00   0.00    -0.00   0.01  -0.00
  30   6     0.05  -0.10  -0.10    -0.00  -0.01  -0.00    -0.00  -0.01  -0.02
  31   8     0.28  -0.04  -0.37     0.01  -0.00  -0.01     0.06  -0.05  -0.00
  32   7     0.02   0.11   0.29    -0.01   0.01   0.02     0.22  -0.09  -0.03
  33   1     0.08   0.10   0.09     0.02  -0.01   0.01    -0.33   0.18   0.01
  34   1    -0.04  -0.01   0.16     0.02  -0.01   0.01    -0.42   0.21  -0.02
  35   7    -0.18  -0.36  -0.16    -0.01  -0.02  -0.00    -0.02   0.00  -0.03
  36   1    -0.11  -0.10  -0.00    -0.02   0.00   0.00     0.13  -0.08  -0.01
  37   1    -0.06  -0.12  -0.08    -0.01  -0.00  -0.00     0.05  -0.04  -0.01
  38   6    -0.01  -0.01  -0.03     0.09  -0.12   0.01    -0.04   0.02  -0.02
  39   8    -0.01   0.01  -0.09     0.17  -0.19   0.02    -0.04   0.06  -0.09
  40   7    -0.02  -0.02  -0.01    -0.04  -0.14   0.03    -0.01   0.02   0.12
  41   1    -0.01  -0.01   0.01     0.01  -0.03  -0.12     0.04   0.04  -0.17
  42   1    -0.01  -0.01   0.03     0.00   0.01  -0.19     0.05   0.04  -0.25
  43   7    -0.03  -0.04   0.03     0.20   0.12  -0.09    -0.01   0.01  -0.18
  44   1     0.01  -0.00  -0.03    -0.06  -0.00   0.28    -0.10  -0.11   0.39
  45   1    -0.00  -0.00  -0.04     0.05  -0.00   0.23    -0.09  -0.07   0.27
  46   6     0.03   0.10  -0.01     0.00   0.00  -0.01     0.01   0.00   0.01
  47   8     0.06   0.27  -0.12    -0.01   0.05  -0.01     0.01  -0.01   0.01
  48   7    -0.13  -0.05  -0.03    -0.01  -0.01  -0.01    -0.01  -0.00   0.01
  49   1    -0.05  -0.04  -0.05    -0.01   0.00  -0.00     0.00  -0.01  -0.00
  50   1    -0.02  -0.10   0.00    -0.01  -0.00   0.00     0.01  -0.03  -0.01
  51   7     0.23   0.06   0.21    -0.01   0.03   0.03    -0.01   0.02   0.01
  52   1     0.01   0.02   0.13     0.06  -0.07  -0.02     0.01  -0.00  -0.01
  53   1     0.08   0.11   0.09     0.05  -0.05  -0.03    -0.01   0.00   0.00
                     28                     29                     30
                        a                      a                      a 
 Frequencies --   237.7738               255.1770               285.6833
 Red. masses --     3.6193                 6.1745                 5.8148
 Frc consts  --     0.0000                 0.0000                 0.0000
 IR Inten    --    81.5198                 2.8442                 0.4058
 Raman Activ --     0.0000                 0.0000                 0.0000
 Depolar     --     0.0000                 0.0000                 0.0000
 Atom AN      X      Y      Z        X      Y      Z        X      Y      Z
   1   8    -0.13   0.14  -0.05    -0.37   0.03  -0.26    -0.06  -0.16   0.01
   2   6     0.02  -0.03   0.03    -0.16   0.07  -0.03     0.15  -0.20   0.16
   3   1     0.01  -0.02   0.07    -0.07   0.01  -0.03     0.08  -0.06   0.15
   4   1     0.04  -0.05  -0.03    -0.00   0.08  -0.02     0.09  -0.15  -0.01
   5   6    -0.02   0.01   0.01    -0.02  -0.06   0.12    -0.04   0.04   0.02
   6   1    -0.01  -0.01   0.01     0.01  -0.01   0.04    -0.03  -0.00  -0.00
   7   1    -0.01   0.01   0.01    -0.01  -0.02   0.03    -0.03   0.01  -0.01
   8   7    -0.01   0.01   0.01     0.06  -0.02   0.07     0.00   0.12  -0.02
   9   6    -0.02  -0.01  -0.00     0.20   0.08   0.15    -0.25   0.18  -0.09
  10   1    -0.01  -0.10  -0.04     0.08   0.30   0.14    -0.12  -0.06  -0.02
  11   1    -0.09   0.06  -0.02     0.28  -0.15   0.10    -0.17   0.13  -0.05
  12   1     0.07   0.03   0.05    -0.16  -0.06  -0.09     0.01   0.11  -0.02
  13   6     0.01  -0.00   0.02     0.02   0.05  -0.13     0.30  -0.09   0.15
  14   1    -0.00   0.01  -0.03     0.06  -0.05   0.14     0.16  -0.03   0.16
  15   1     0.03  -0.02   0.01    -0.19   0.09  -0.08     0.04   0.04   0.05
  16   1    -0.02  -0.00   0.03     0.15   0.02  -0.21     0.13  -0.14  -0.04
  17   6    -0.01   0.03  -0.02     0.04  -0.03   0.08    -0.09   0.13  -0.19
  18   1     0.02   0.05  -0.03    -0.09  -0.19   0.12    -0.15  -0.24   0.05
  19   1    -0.05  -0.01  -0.03     0.17   0.09   0.12     0.17   0.22   0.10
  20   1     0.02  -0.01   0.04    -0.06   0.06  -0.18    -0.11   0.14  -0.37
  21   1    -0.03   0.04  -0.05    -0.08   0.03  -0.06    -0.00  -0.02  -0.02
  22   6     0.01   0.03   0.02     0.01  -0.01  -0.01    -0.00  -0.01  -0.01
  23   8     0.02   0.03   0.02     0.01  -0.01  -0.01    -0.02  -0.02  -0.01
  24   7    -0.03  -0.01   0.01     0.01  -0.01   0.00     0.00  -0.01   0.00
  25   1     0.03   0.02   0.02    -0.00  -0.00  -0.00     0.00  -0.00   0.00
  26   1     0.07   0.05   0.03    -0.00  -0.00   0.00     0.01   0.00   0.00
  27   7    -0.05   0.01  -0.01     0.01   0.01  -0.00     0.01   0.01   0.00
  28   1     0.01   0.02   0.01    -0.01  -0.00  -0.01    -0.02  -0.01  -0.01
  29   1    -0.00   0.01   0.00    -0.00  -0.00  -0.01    -0.01  -0.01  -0.01
  30   6     0.00  -0.01  -0.02    -0.00   0.00   0.01    -0.00   0.01   0.00
  31   8     0.06  -0.06   0.01    -0.01   0.00   0.01    -0.00   0.00   0.01
  32   7     0.22  -0.10  -0.05    -0.01   0.00  -0.01    -0.00   0.00  -0.01
  33   1    -0.35   0.18   0.01     0.01  -0.01  -0.00     0.01  -0.01  -0.00
  34   1    -0.44   0.23  -0.03     0.02  -0.01  -0.00     0.01  -0.00  -0.00
  35   7    -0.02   0.01  -0.03     0.01   0.01   0.01     0.00   0.01   0.01
  36   1     0.13  -0.08  -0.01    -0.00   0.01   0.00    -0.01   0.01   0.00
  37   1     0.05  -0.03  -0.00    -0.00   0.00   0.00    -0.00   0.00  -0.00
  38   6     0.04  -0.03   0.02     0.05  -0.05   0.00    -0.00   0.01   0.01
  39   8     0.05  -0.08   0.09     0.07  -0.07   0.03    -0.01   0.02   0.01
  40   7     0.01  -0.03  -0.12     0.00  -0.05  -0.03     0.01   0.02   0.00
  41   1    -0.04  -0.04   0.15    -0.01  -0.02   0.02     0.00   0.00   0.00
  42   1    -0.05  -0.04   0.23    -0.02  -0.01   0.06     0.00   0.00  -0.00
  43   7     0.02   0.00   0.17     0.07   0.03   0.07    -0.01  -0.01  -0.01
  44   1     0.09   0.11  -0.36     0.03   0.06  -0.11     0.00  -0.01   0.01
  45   1     0.10   0.06  -0.24     0.06   0.03  -0.07    -0.01  -0.01   0.00
  46   6    -0.02  -0.01  -0.01    -0.00  -0.00  -0.01    -0.01  -0.00  -0.00
  47   8    -0.04  -0.01   0.03    -0.00  -0.01  -0.00    -0.00  -0.00  -0.01
  48   7     0.02   0.01  -0.01     0.01  -0.00  -0.01    -0.00  -0.01  -0.01
  49   1     0.01  -0.01  -0.00     0.01  -0.01  -0.00    -0.00   0.00   0.00
  50   1     0.01   0.00  -0.01     0.00  -0.00  -0.00    -0.00   0.00   0.00
  51   7    -0.03  -0.03  -0.06     0.01  -0.01  -0.01    -0.00  -0.00   0.00
  52   1    -0.01  -0.00  -0.02    -0.00  -0.00   0.00     0.00  -0.00  -0.00
  53   1    -0.02  -0.01  -0.01    -0.00   0.01   0.01     0.00  -0.00  -0.00
                     31                     32                     33
                        a                      a                      a 
 Frequencies --   288.8454               312.2186               321.4742
 Red. masses --     4.3320                 2.4910                 7.2622
 Frc consts  --     0.0000                 0.0000                 0.0000
 IR Inten    --     1.1025               114.3465                 5.2119
 Raman Activ --     0.0000                 0.0000                 0.0000
 Depolar     --     0.0000                 0.0000                 0.0000
 Atom AN      X      Y      Z        X      Y      Z        X      Y      Z
   1   8    -0.08  -0.16   0.02     0.01   0.01   0.00    -0.31  -0.26  -0.02
   2   6    -0.26   0.13  -0.08     0.01  -0.00   0.00    -0.21   0.06   0.13
   3   1    -0.14   0.04  -0.18     0.01  -0.00   0.01    -0.06   0.03  -0.02
   4   1    -0.14   0.18   0.06     0.01  -0.01  -0.00    -0.06   0.07   0.06
   5   6     0.07  -0.12  -0.04    -0.01   0.01   0.01    -0.04   0.01   0.09
   6   1     0.07   0.02  -0.03    -0.01  -0.00   0.01     0.02   0.01   0.05
   7   1     0.04  -0.09  -0.03     0.00   0.01   0.01    -0.05  -0.00  -0.00
   8   7     0.09  -0.05   0.01    -0.02  -0.01   0.01     0.12   0.04  -0.06
   9   6     0.08  -0.04   0.04    -0.01  -0.02   0.01    -0.19   0.06  -0.20
  10   1     0.01  -0.34  -0.13    -0.00   0.01   0.01    -0.11   0.15   0.08
  11   1    -0.26   0.20  -0.02     0.02  -0.02   0.00     0.07  -0.07  -0.09
  12   1     0.31   0.10   0.18    -0.02  -0.01  -0.01    -0.21  -0.02  -0.18
  13   6    -0.07   0.06  -0.10    -0.01  -0.01  -0.01     0.26  -0.06   0.03
  14   1    -0.05   0.03  -0.08    -0.01   0.01  -0.03     0.03   0.10  -0.22
  15   1    -0.00  -0.01  -0.04     0.02  -0.02  -0.00     0.32  -0.14   0.04
  16   1    -0.04   0.07   0.01    -0.02   0.00   0.02    -0.10  -0.03   0.22
  17   6     0.26   0.05   0.16    -0.01   0.00   0.00     0.28   0.13   0.05
  18   1    -0.05  -0.13   0.17     0.00   0.01  -0.01     0.11   0.16   0.00
  19   1     0.25   0.12   0.16    -0.01   0.00  -0.00     0.02  -0.00  -0.03
  20   1     0.04   0.07  -0.17     0.00  -0.00   0.01     0.15  -0.01   0.10
  21   1    -0.01  -0.04   0.08     0.00   0.00  -0.00    -0.06  -0.05   0.05
  22   6    -0.01   0.00  -0.00    -0.01   0.01  -0.03    -0.01   0.00  -0.00
  23   8    -0.02  -0.00  -0.00     0.01   0.02  -0.02    -0.01   0.01   0.00
  24   7    -0.00   0.01  -0.00    -0.04  -0.03  -0.02     0.00   0.01  -0.01
  25   1     0.00   0.00   0.00     0.06   0.05   0.03     0.00  -0.00  -0.00
  26   1     0.01   0.01   0.00     0.24   0.19   0.09    -0.01  -0.01  -0.01
  27   7     0.02   0.00   0.02     0.24   0.13   0.18    -0.00   0.00  -0.00
  28   1    -0.02  -0.02  -0.02    -0.61  -0.33  -0.38     0.01   0.01   0.01
  29   1    -0.02  -0.02  -0.01    -0.26  -0.19  -0.20     0.00   0.00   0.00
  30   6    -0.00   0.00  -0.00    -0.00  -0.01  -0.00     0.00   0.01  -0.01
  31   8    -0.00   0.00  -0.00    -0.01  -0.01   0.00     0.00   0.00  -0.01
  32   7     0.00  -0.00   0.00    -0.01  -0.01  -0.02     0.01   0.00  -0.00
  33   1    -0.00   0.00   0.00    -0.01   0.00  -0.00     0.00  -0.00  -0.00
  34   1    -0.00   0.00   0.00     0.01  -0.01  -0.00    -0.00   0.00  -0.00
  35   7     0.01  -0.00  -0.00    -0.00   0.00  -0.00    -0.00   0.00  -0.00
  36   1    -0.00   0.00  -0.00     0.01  -0.00  -0.00    -0.00   0.00  -0.00
  37   1    -0.00   0.00   0.00     0.00  -0.00   0.00     0.00  -0.00   0.00
  38   6     0.00   0.02  -0.01    -0.00  -0.00   0.00     0.02  -0.00  -0.01
  39   8    -0.01   0.03  -0.02     0.00  -0.00   0.00     0.01   0.01  -0.01
  40   7     0.01   0.01   0.02     0.00  -0.00  -0.01     0.01  -0.01   0.03
  41   1     0.01   0.01  -0.01    -0.00  -0.00   0.01     0.01  -0.00  -0.02
  42   1     0.01   0.00  -0.00    -0.00  -0.00   0.02     0.00   0.01  -0.04
  43   7    -0.01  -0.02   0.01     0.00   0.01  -0.01     0.01  -0.01   0.02
  44   1     0.01  -0.01  -0.02    -0.00  -0.00   0.01     0.01   0.01  -0.02
  45   1    -0.01  -0.00  -0.02     0.00  -0.00   0.01     0.01   0.00  -0.02
  46   6    -0.01   0.00  -0.00     0.00  -0.00  -0.00     0.01  -0.00   0.01
  47   8    -0.02   0.02   0.01     0.00  -0.01   0.00     0.01  -0.04   0.01
  48   7    -0.02   0.02   0.00     0.00   0.00  -0.00     0.02   0.00   0.01
  49   1     0.00  -0.01  -0.01     0.00  -0.00  -0.00     0.01  -0.01  -0.00
  50   1     0.01  -0.02  -0.01     0.00  -0.00  -0.00     0.02  -0.02  -0.01
  51   7    -0.01   0.00  -0.01    -0.00  -0.00  -0.00     0.02  -0.03  -0.02
  52   1    -0.02   0.02   0.01    -0.00   0.00  -0.00    -0.04   0.05   0.02
  53   1    -0.01   0.01   0.00    -0.00   0.00  -0.00    -0.04   0.05   0.03
                     34                     35                     36
                        a                      a                      a 
 Frequencies --   337.8796               363.4769               366.1093
 Red. masses --     2.8859                 3.3874                 3.3426
 Frc consts  --     0.0000                 0.0000                 0.0000
 IR Inten    --     1.1609               339.3982               154.1671
 Raman Activ --     0.0000                 0.0000                 0.0000
 Depolar     --     0.0000                 0.0000                 0.0000
 Atom AN      X      Y      Z        X      Y      Z        X      Y      Z
   1   8     0.08   0.11  -0.02    -0.00   0.05  -0.03    -0.01  -0.09   0.00
   2   6     0.05  -0.05  -0.08     0.00  -0.01  -0.03    -0.04   0.03  -0.00
   3   1    -0.00  -0.03  -0.00    -0.00  -0.01  -0.00    -0.01   0.02  -0.03
   4   1     0.02  -0.03  -0.03     0.01  -0.01  -0.01    -0.03   0.03   0.02
   5   6    -0.02  -0.04  -0.02     0.01  -0.02  -0.01    -0.03   0.02   0.04
   6   1    -0.04  -0.03  -0.01     0.00  -0.01   0.00    -0.00   0.01   0.02
   7   1     0.02   0.02   0.02     0.00   0.00   0.00    -0.02   0.01   0.01
   8   7    -0.06  -0.03   0.03     0.00  -0.00   0.00     0.01   0.01   0.00
   9   6     0.19   0.05   0.17     0.02   0.03   0.03    -0.04  -0.03  -0.04
  10   1     0.10   0.13   0.05     0.01  -0.00  -0.00    -0.02  -0.00   0.00
  11   1     0.13  -0.06   0.12    -0.01   0.02   0.02     0.01  -0.02  -0.03
  12   1     0.00  -0.01   0.02     0.02   0.02   0.01    -0.03  -0.02  -0.02
  13   6    -0.10  -0.03   0.06    -0.01   0.00   0.02     0.05  -0.00  -0.02
  14   1    -0.15   0.13  -0.36    -0.01   0.00  -0.01     0.03   0.00   0.01
  15   1     0.34  -0.20   0.07     0.01  -0.00   0.01    -0.01  -0.00  -0.02
  16   1    -0.30   0.05   0.37    -0.02   0.00   0.02     0.03  -0.01  -0.03
  17   6    -0.14   0.00  -0.13    -0.02   0.00  -0.03     0.05   0.02   0.06
  18   1    -0.13  -0.21   0.04    -0.00  -0.01  -0.01     0.02   0.03   0.02
  19   1     0.10   0.13   0.07    -0.01   0.01  -0.01     0.01  -0.01   0.01
  20   1    -0.12   0.08  -0.27    -0.01   0.01  -0.02     0.03  -0.01   0.03
  21   1     0.02   0.03  -0.03     0.01   0.02   0.00    -0.02  -0.04  -0.04
  22   6    -0.01   0.00  -0.00    -0.00  -0.01   0.00    -0.01  -0.01  -0.00
  23   8    -0.03  -0.00  -0.01    -0.00  -0.01  -0.00    -0.00  -0.01  -0.00
  24   7     0.00   0.01  -0.01     0.01   0.00   0.00     0.02   0.01   0.00
  25   1     0.00  -0.00  -0.00    -0.00  -0.00  -0.00    -0.01  -0.01  -0.00
  26   1    -0.01  -0.01  -0.01    -0.02  -0.02  -0.01    -0.05  -0.04  -0.02
  27   7    -0.01  -0.00  -0.00    -0.00   0.00   0.00     0.01   0.01   0.00
  28   1     0.03   0.01   0.02     0.01   0.01   0.01    -0.01   0.00   0.00
  29   1     0.00   0.00   0.01     0.00   0.00   0.00     0.00   0.00  -0.00
  30   6     0.00  -0.01  -0.01    -0.01   0.03   0.00     0.01  -0.02  -0.01
  31   8     0.01  -0.01  -0.02    -0.01   0.03   0.01     0.01  -0.02  -0.01
  32   7     0.00  -0.00   0.01     0.02   0.00  -0.01    -0.01   0.00   0.02
  33   1     0.00   0.00   0.00    -0.00  -0.00  -0.00     0.01   0.00   0.01
  34   1    -0.02   0.00   0.01     0.01   0.00  -0.01    -0.03   0.01   0.01
  35   7    -0.01  -0.01  -0.01     0.02   0.01   0.01    -0.02  -0.01  -0.01
  36   1     0.01  -0.01  -0.00    -0.03   0.02   0.00     0.03  -0.02  -0.00
  37   1     0.00  -0.00   0.00    -0.01   0.01  -0.00     0.01  -0.01  -0.00
  38   6    -0.01  -0.00   0.00    -0.00  -0.04   0.11    -0.02   0.01   0.10
  39   8    -0.00  -0.01   0.00    -0.01  -0.02   0.07    -0.02   0.04   0.01
  40   7    -0.00  -0.00  -0.02     0.01  -0.00  -0.22     0.05   0.05  -0.23
  41   1    -0.00  -0.00   0.02    -0.04  -0.03   0.14    -0.03  -0.01   0.17
  42   1    -0.00  -0.01   0.03    -0.07  -0.07   0.43    -0.07  -0.09   0.57
  43   7     0.00   0.01  -0.01     0.07   0.06  -0.18     0.04   0.02  -0.18
  44   1    -0.01   0.00   0.01    -0.06  -0.06   0.29    -0.05  -0.08   0.24
  45   1     0.00   0.00   0.01    -0.02  -0.02   0.13    -0.05  -0.03   0.12
  46   6     0.01   0.00   0.01    -0.00  -0.03  -0.03     0.01   0.02   0.01
  47   8     0.01   0.01   0.00    -0.01  -0.11   0.03     0.00   0.08  -0.02
  48   7     0.02  -0.01   0.00    -0.04   0.11   0.03     0.03  -0.09  -0.02
  49   1    -0.01   0.02   0.01     0.07  -0.11  -0.05    -0.06   0.08   0.04
  50   1    -0.02   0.04   0.02     0.13  -0.24  -0.12    -0.09   0.16   0.08
  51   7    -0.01   0.02   0.01     0.10  -0.13  -0.09    -0.09   0.11   0.09
  52   1     0.04  -0.04  -0.02    -0.22   0.27   0.14     0.19  -0.23  -0.12
  53   1     0.04  -0.06  -0.03    -0.23   0.37   0.20     0.21  -0.33  -0.17
                     37                     38                     39
                        a                      a                      a 
 Frequencies --   379.1443               394.3493               412.0071
 Red. masses --     7.3554                 3.0478                 3.4109
 Frc consts  --     0.0000                 0.0000                 0.0000
 IR Inten    --     0.6169               108.3123               298.3374
 Raman Activ --     0.0000                 0.0000                 0.0000
 Depolar     --     0.0000                 0.0000                 0.0000
 Atom AN      X      Y      Z        X      Y      Z        X      Y      Z
   1   8     0.12   0.09   0.03     0.00  -0.01   0.01     0.01   0.02   0.00
   2   6     0.20   0.07   0.11     0.00   0.01   0.00    -0.00   0.00  -0.02
   3   1     0.12   0.04   0.10     0.00   0.00   0.00    -0.01  -0.00  -0.01
   4   1     0.09  -0.06  -0.02     0.00  -0.00   0.00    -0.00   0.01  -0.00
   5   6    -0.14   0.20   0.27    -0.01   0.01   0.01    -0.00  -0.02   0.01
   6   1    -0.08  -0.05   0.20    -0.00  -0.00   0.01    -0.01  -0.01   0.01
   7   1    -0.10   0.19   0.10    -0.01   0.01   0.00    -0.00   0.01   0.01
   8   7    -0.03  -0.01   0.01    -0.01   0.00   0.01     0.00  -0.04   0.01
   9   6    -0.15  -0.30  -0.17    -0.02  -0.03  -0.01    -0.02   0.04   0.04
  10   1    -0.07  -0.12  -0.03    -0.01  -0.00   0.00    -0.01   0.01   0.02
  11   1    -0.01  -0.08  -0.15     0.01  -0.01  -0.01    -0.02   0.02   0.03
  12   1    -0.08  -0.14  -0.02    -0.01  -0.01  -0.00     0.00   0.03  -0.00
  13   6    -0.03   0.08  -0.41     0.00   0.00  -0.03    -0.00  -0.04  -0.00
  14   1    -0.01   0.08  -0.21     0.01   0.02  -0.02    -0.01  -0.02   0.00
  15   1    -0.01  -0.09  -0.17     0.01  -0.02  -0.01    -0.01  -0.01  -0.01
  16   1    -0.01   0.11  -0.09    -0.00   0.01  -0.00     0.00  -0.01  -0.01
  17   6     0.03  -0.06   0.19    -0.00   0.01   0.02     0.05   0.03  -0.03
  18   1    -0.09  -0.10   0.17    -0.01  -0.00   0.01     0.02   0.02  -0.01
  19   1     0.15   0.02   0.13     0.01   0.01   0.01    -0.00   0.03  -0.01
  20   1    -0.01   0.02  -0.07    -0.00   0.00  -0.00     0.03   0.00  -0.02
  21   1     0.02   0.01  -0.03    -0.01  -0.01  -0.01     0.01   0.01   0.00
  22   6    -0.00  -0.00   0.00     0.08   0.07   0.02     0.05   0.05   0.01
  23   8     0.01  -0.00   0.00     0.04   0.07   0.02     0.03   0.05   0.01
  24   7     0.01   0.00   0.01    -0.16  -0.15  -0.03    -0.13  -0.12  -0.01
  25   1    -0.00  -0.00  -0.00     0.04   0.06   0.03    -0.00   0.03   0.00
  26   1    -0.02  -0.02  -0.01     0.50   0.36   0.16     0.41   0.29   0.13
  27   7    -0.00   0.00  -0.00    -0.12  -0.08  -0.10    -0.09  -0.06  -0.08
  28   1     0.02   0.01   0.01     0.17   0.06   0.07     0.15   0.05   0.06
  29   1     0.00   0.00   0.00     0.03   0.01   0.04     0.02   0.01   0.04
  30   6     0.01  -0.00   0.00    -0.09   0.05   0.01     0.11  -0.09   0.00
  31   8     0.00  -0.00  -0.00    -0.04   0.01   0.01     0.05  -0.04  -0.00
  32   7    -0.01   0.00  -0.00     0.08  -0.08  -0.03    -0.18   0.08  -0.02
  33   1     0.00  -0.01  -0.00    -0.10   0.07   0.00     0.02   0.00  -0.00
  34   1     0.00  -0.00  -0.00     0.11  -0.07   0.00     0.22  -0.12   0.02
  35   7    -0.01   0.01   0.00     0.13  -0.07   0.01    -0.18   0.13   0.00
  36   1     0.04  -0.02   0.00    -0.48   0.30  -0.00     0.55  -0.33   0.00
  37   1     0.01  -0.01   0.00    -0.05   0.03   0.00     0.06  -0.03   0.00
  38   6    -0.00   0.00   0.00    -0.01   0.00   0.01     0.01  -0.00   0.00
  39   8     0.00  -0.01   0.01    -0.00   0.00   0.00     0.00  -0.00  -0.00
  40   7    -0.00  -0.00   0.00     0.01   0.01  -0.01    -0.00  -0.01  -0.01
  41   1    -0.00  -0.00  -0.00    -0.00   0.00   0.01    -0.00  -0.00   0.00
  42   1     0.00   0.00  -0.02    -0.00  -0.01   0.04    -0.01  -0.01   0.03
  43   7    -0.00   0.00  -0.00    -0.00  -0.00  -0.01     0.01   0.01  -0.01
  44   1    -0.00  -0.00   0.00    -0.00  -0.01   0.01    -0.01  -0.00   0.03
  45   1    -0.00   0.00  -0.00    -0.01  -0.00   0.01     0.00   0.00   0.00
  46   6     0.00   0.01   0.01     0.04  -0.04  -0.01    -0.03   0.04   0.02
  47   8     0.01  -0.02  -0.00     0.03  -0.01   0.01    -0.01   0.01   0.00
  48   7     0.01  -0.01  -0.01    -0.00   0.02   0.02    -0.00  -0.04  -0.01
  49   1     0.00  -0.00  -0.00     0.02  -0.04  -0.02    -0.03   0.04   0.02
  50   1    -0.00   0.01   0.00     0.05  -0.10  -0.03    -0.05   0.09   0.04
  51   7     0.02  -0.03  -0.03    -0.03   0.06   0.01     0.01  -0.04  -0.03
  52   1    -0.03   0.03   0.01     0.04  -0.04  -0.03    -0.03   0.03   0.01
  53   1    -0.04   0.05   0.03     0.04  -0.07  -0.04    -0.04   0.05   0.03
                     40                     41                     42
                        a                      a                      a 
 Frequencies --   425.8946               460.6362               461.8531
 Red. masses --     8.6830                 5.8617                 8.3833
 Frc consts  --     0.0000                 0.0000                 0.0000
 IR Inten    --     9.9319               109.2413                16.2051
 Raman Activ --     0.0000                 0.0000                 0.0000
 Depolar     --     0.0000                 0.0000                 0.0000
 Atom AN      X      Y      Z        X      Y      Z        X      Y      Z
   1   8     0.19   0.20   0.04    -0.01  -0.04  -0.00     0.06   0.02   0.02
   2   6    -0.00   0.02  -0.16     0.05   0.04   0.06    -0.08  -0.08  -0.13
   3   1    -0.02   0.00  -0.07     0.01   0.01   0.00    -0.00  -0.02  -0.01
   4   1    -0.02   0.04  -0.02     0.02   0.03   0.02    -0.04  -0.07  -0.04
   5   6    -0.06  -0.11   0.14     0.08  -0.01   0.09    -0.16   0.03  -0.19
   6   1    -0.05  -0.10   0.12     0.04  -0.01   0.05    -0.06   0.03  -0.11
   7   1    -0.03   0.08   0.08     0.00   0.01   0.02     0.00  -0.03  -0.04
   8   7    -0.10  -0.31   0.09     0.12  -0.06  -0.01    -0.26   0.12   0.03
   9   6    -0.24   0.14   0.25    -0.08   0.07  -0.04     0.12  -0.17   0.08
  10   1    -0.10   0.09   0.13    -0.06   0.02   0.04     0.11  -0.03  -0.06
  11   1    -0.10   0.05   0.15    -0.04   0.03  -0.01     0.08  -0.08   0.03
  12   1    -0.05   0.13  -0.03    -0.02   0.05  -0.05     0.03  -0.11   0.11
  13   6    -0.06  -0.28  -0.17    -0.12   0.07   0.01     0.26  -0.15  -0.05
  14   1     0.03  -0.05  -0.02    -0.09  -0.02  -0.01     0.19   0.06   0.01
  15   1    -0.07  -0.10  -0.08    -0.05   0.04   0.01     0.10  -0.10  -0.03
  16   1     0.03  -0.06  -0.10    -0.04   0.08   0.02     0.08  -0.16  -0.05
  17   6     0.26   0.22  -0.18     0.02  -0.11  -0.12    -0.05   0.26   0.22
  18   1     0.12   0.15  -0.09     0.02  -0.06  -0.06    -0.04   0.14   0.10
  19   1    -0.02   0.20  -0.03    -0.01  -0.02  -0.04     0.01   0.07   0.07
  20   1     0.22   0.01  -0.12    -0.03  -0.02  -0.04     0.06   0.04   0.06
  21   1     0.04   0.04  -0.01    -0.01  -0.02  -0.00     0.02   0.01   0.01
  22   6    -0.00  -0.00  -0.01     0.00  -0.05   0.02    -0.01   0.03  -0.02
  23   8     0.00  -0.00  -0.01    -0.02  -0.03   0.05     0.02   0.01  -0.04
  24   7     0.01   0.01   0.02     0.06   0.01  -0.05    -0.03   0.01   0.04
  25   1     0.01  -0.01   0.01     0.00   0.02  -0.03     0.01  -0.01   0.02
  26   1    -0.07  -0.04  -0.01    -0.04  -0.06  -0.05    -0.04  -0.00   0.01
  27   7     0.02  -0.00   0.01    -0.02   0.05   0.00     0.03  -0.03   0.01
  28   1     0.00  -0.01  -0.00    -0.09   0.02   0.01     0.06  -0.02  -0.01
  29   1    -0.00  -0.01   0.00     0.06   0.08  -0.03    -0.05  -0.06   0.01
  30   6    -0.01   0.01   0.00    -0.02  -0.08  -0.08    -0.00  -0.00  -0.01
  31   8    -0.01   0.01   0.00    -0.04  -0.13  -0.02    -0.01  -0.01   0.01
  32   7     0.02  -0.01  -0.00    -0.01   0.02   0.14    -0.00   0.01   0.02
  33   1    -0.01   0.00  -0.00    -0.13   0.24   0.07     0.02   0.01   0.01
  34   1    -0.02   0.01  -0.00     0.15  -0.16   0.16     0.00  -0.01   0.01
  35   7     0.02  -0.02   0.00     0.03   0.17  -0.06    -0.00   0.02  -0.01
  36   1    -0.08   0.05   0.00     0.12   0.03  -0.07     0.04  -0.02  -0.01
  37   1    -0.00  -0.00  -0.00     0.04   0.06   0.04     0.00   0.00  -0.00
  38   6    -0.01  -0.00  -0.00    -0.11  -0.08  -0.04    -0.11  -0.11  -0.05
  39   8    -0.00  -0.02  -0.00    -0.12  -0.07  -0.04    -0.15  -0.09  -0.05
  40   7     0.00  -0.00   0.00     0.18  -0.03   0.04     0.20  -0.05   0.03
  41   1     0.00   0.01   0.01     0.09   0.10  -0.00     0.09   0.10   0.03
  42   1     0.01  -0.00  -0.02     0.12  -0.09   0.04     0.14  -0.10   0.01
  43   7    -0.01   0.01   0.01    -0.05   0.14   0.02    -0.04   0.19   0.04
  44   1    -0.01   0.01  -0.00    -0.06   0.15  -0.10    -0.09   0.16  -0.03
  45   1     0.00   0.00  -0.00     0.08   0.05   0.14     0.12   0.08   0.08
  46   6    -0.01   0.00  -0.00     0.11  -0.03   0.02     0.07  -0.01   0.02
  47   8    -0.00  -0.00  -0.01     0.11   0.03   0.04     0.07   0.02   0.01
  48   7     0.02   0.00  -0.01    -0.12   0.02   0.10    -0.08  -0.02   0.05
  49   1     0.02  -0.01  -0.00    -0.03  -0.07  -0.06    -0.04  -0.01  -0.02
  50   1    -0.00   0.02  -0.00     0.15  -0.40  -0.09     0.02  -0.12   0.01
  51   7     0.01  -0.01   0.02    -0.09   0.12  -0.08    -0.04   0.05  -0.07
  52   1     0.01  -0.02   0.00     0.06  -0.01  -0.12     0.02   0.02  -0.06
  53   1     0.02  -0.01  -0.00    -0.00  -0.15  -0.10    -0.06  -0.01  -0.02
                     43                     44                     45
                        a                      a                      a 
 Frequencies --   463.2007               465.7600               468.8202
 Red. masses --     2.2054                 6.2583                 4.6446
 Frc consts  --     0.0000                 0.0000                 0.0000
 IR Inten    --   105.0399               200.6991                17.1760
 Raman Activ --     0.0000                 0.0000                 0.0000
 Depolar     --     0.0000                 0.0000                 0.0000
 Atom AN      X      Y      Z        X      Y      Z        X      Y      Z
   1   8    -0.01  -0.02  -0.00    -0.00   0.05   0.00     0.04   0.06   0.02
   2   6     0.02   0.02   0.03    -0.03  -0.01  -0.03    -0.04  -0.04  -0.08
   3   1     0.00   0.01   0.00     0.00  -0.00   0.01     0.01  -0.00   0.00
   4   1     0.01   0.02   0.01    -0.00  -0.03  -0.02    -0.02  -0.04  -0.03
   5   6     0.05  -0.01   0.04    -0.04   0.02  -0.07    -0.15   0.03  -0.04
   6   1     0.03   0.00   0.01    -0.00   0.03  -0.05    -0.06  -0.04   0.04
   7   1     0.01  -0.01   0.01     0.01  -0.02  -0.02    -0.07   0.07   0.00
   8   7     0.04  -0.02   0.02    -0.11   0.03   0.03    -0.07   0.01  -0.10
   9   6    -0.05   0.01  -0.00     0.02  -0.07   0.05     0.09   0.04  -0.03
  10   1    -0.03   0.00   0.02     0.03  -0.00  -0.01     0.05   0.02  -0.04
  11   1    -0.01   0.00  -0.01     0.03  -0.04   0.02     0.02   0.01   0.03
  12   1    -0.02   0.01  -0.02    -0.00  -0.05   0.04     0.04   0.01   0.01
  13   6    -0.05   0.03  -0.02     0.09  -0.06  -0.05     0.04  -0.09   0.05
  14   1    -0.03   0.00  -0.02     0.07   0.03  -0.01     0.03  -0.02   0.04
  15   1    -0.02   0.01  -0.01     0.03  -0.05  -0.03     0.03   0.00   0.03
  16   1    -0.01   0.04   0.00     0.03  -0.05  -0.03     0.00  -0.08   0.01
  17   6    -0.00  -0.03  -0.06    -0.03   0.11   0.06     0.06   0.01   0.10
  18   1     0.01  -0.02  -0.03    -0.01   0.06   0.03    -0.02   0.03   0.08
  19   1    -0.01   0.00  -0.02    -0.01   0.04   0.02     0.06  -0.01   0.04
  20   1    -0.01  -0.00  -0.02     0.03   0.02   0.01     0.05  -0.01   0.03
  21   1    -0.02  -0.02  -0.01    -0.04  -0.03  -0.04     0.00   0.01  -0.01
  22   6     0.01   0.03  -0.02    -0.01   0.01  -0.01     0.02  -0.17   0.06
  23   8     0.01   0.02  -0.02     0.01  -0.00  -0.02    -0.12  -0.07   0.20
  24   7    -0.05  -0.03   0.03    -0.01   0.01   0.02     0.18  -0.03  -0.17
  25   1    -0.03  -0.02   0.00     0.01   0.00   0.01    -0.05   0.03  -0.11
  26   1     0.12   0.10   0.06    -0.06  -0.03  -0.01     0.18   0.01  -0.07
  27   7    -0.01  -0.05  -0.03     0.02  -0.01   0.01    -0.14   0.10  -0.07
  28   1     0.03  -0.01  -0.01     0.03  -0.01  -0.00    -0.41   0.06   0.01
  29   1     0.03   0.01   0.04    -0.04  -0.04   0.00     0.46   0.45   0.01
  30   6    -0.05   0.04   0.04    -0.00  -0.02  -0.02    -0.02  -0.02   0.00
  31   8    -0.04   0.10  -0.04    -0.01  -0.04  -0.01    -0.02  -0.01  -0.01
  32   7    -0.04   0.01   0.01    -0.02   0.02   0.04    -0.01  -0.01   0.03
  33   1     0.51  -0.43  -0.05    -0.04   0.08   0.02     0.07  -0.04   0.00
  34   1    -0.39   0.27  -0.12     0.07  -0.07   0.05    -0.05   0.02   0.01
  35   7     0.06  -0.08   0.04    -0.01   0.08  -0.02     0.04   0.03   0.01
  36   1     0.12  -0.08   0.01     0.13  -0.04  -0.02     0.01   0.03  -0.02
  37   1    -0.06   0.02   0.00     0.00   0.03   0.01     0.00   0.02   0.02
  38   6    -0.04  -0.02  -0.01     0.12   0.16   0.08     0.01   0.01   0.01
  39   8    -0.03  -0.02  -0.01     0.22   0.11   0.09     0.02   0.01   0.01
  40   7     0.05   0.00   0.02    -0.27   0.11  -0.03    -0.02   0.01  -0.01
  41   1     0.03   0.03  -0.01    -0.13  -0.13   0.00    -0.02  -0.02   0.03
  42   1     0.04  -0.03   0.02    -0.17   0.15  -0.07    -0.01   0.02  -0.04
  43   7    -0.02   0.03   0.00     0.03  -0.29  -0.05     0.00  -0.02   0.00
  44   1    -0.01   0.04  -0.07     0.14  -0.22  -0.02     0.00  -0.03   0.04
  45   1     0.01   0.00   0.07    -0.18  -0.11  -0.10    -0.00   0.00  -0.06
  46   6     0.05  -0.04  -0.02     0.08  -0.07  -0.03    -0.00  -0.00  -0.00
  47   8     0.03  -0.00   0.03     0.02   0.01   0.05    -0.00  -0.00  -0.01
  48   7    -0.05   0.06   0.04    -0.08   0.07   0.05     0.00  -0.00  -0.01
  49   1     0.00  -0.04  -0.04    -0.00  -0.06  -0.05     0.01  -0.01  -0.00
  50   1     0.13  -0.29  -0.10     0.19  -0.42  -0.14    -0.00   0.01   0.00
  51   7    -0.04   0.08   0.01    -0.07   0.10  -0.02     0.00  -0.01  -0.00
  52   1     0.03  -0.02  -0.03     0.02   0.00  -0.05    -0.01   0.00   0.00
  53   1     0.06  -0.11  -0.07     0.06  -0.17  -0.11    -0.00   0.01   0.00
                     46                     47                     48
                        a                      a                      a 
 Frequencies --   474.7449               476.9058               478.0441
 Red. masses --     3.0718                 6.2716                 5.9486
 Frc consts  --     0.0000                 0.0000                 0.0000
 IR Inten    --     4.9608                79.6357                48.1222
 Raman Activ --     0.0000                 0.0000                 0.0000
 Depolar     --     0.0000                 0.0000                 0.0000
 Atom AN      X      Y      Z        X      Y      Z        X      Y      Z
   1   8    -0.00  -0.00  -0.00    -0.04  -0.04  -0.03    -0.02  -0.05  -0.02
   2   6    -0.00   0.00  -0.01     0.03   0.03   0.06     0.02   0.02   0.04
   3   1    -0.00   0.00  -0.01    -0.02  -0.00  -0.01    -0.01   0.00  -0.02
   4   1    -0.00   0.00   0.00     0.02   0.05   0.03     0.01   0.04   0.02
   5   6    -0.01   0.00   0.02     0.18  -0.06  -0.01     0.12  -0.04   0.01
   6   1    -0.01  -0.01   0.03     0.07   0.06  -0.12     0.05   0.04  -0.06
   7   1    -0.02   0.02   0.01     0.11  -0.13  -0.02     0.07  -0.08  -0.01
   8   7     0.03  -0.01  -0.03     0.00   0.02   0.19     0.01   0.02   0.12
   9   6     0.01   0.03  -0.02    -0.10  -0.13   0.10    -0.08  -0.08   0.05
  10   1    -0.00   0.01  -0.00    -0.05  -0.05   0.05    -0.04  -0.03   0.03
  11   1    -0.01   0.01   0.00    -0.01  -0.04  -0.03    -0.00  -0.03  -0.03
  12   1     0.01   0.02  -0.01    -0.06  -0.06   0.03    -0.04  -0.04   0.01
  13   6    -0.02   0.00   0.03     0.05   0.08  -0.12     0.02   0.07  -0.07
  14   1    -0.02  -0.01   0.02     0.03   0.06  -0.07     0.01   0.04  -0.06
  15   1    -0.01   0.02   0.02    -0.00  -0.05  -0.08     0.00  -0.03  -0.05
  16   1    -0.01   0.00   0.01     0.03   0.07  -0.04     0.01   0.06  -0.02
  17   6     0.02  -0.04  -0.00    -0.11   0.10  -0.09    -0.08   0.06  -0.06
  18   1     0.00  -0.01   0.00     0.02   0.00  -0.09     0.01  -0.01  -0.06
  19   1     0.01  -0.02  -0.00    -0.09   0.06  -0.03    -0.06   0.03  -0.02
  20   1     0.00  -0.01   0.00    -0.04   0.04  -0.03    -0.04   0.02  -0.02
  21   1    -0.00  -0.00  -0.01     0.02   0.01   0.02    -0.02  -0.02  -0.01
  22   6     0.00   0.02  -0.00    -0.06   0.08  -0.09    -0.03   0.02  -0.04
  23   8     0.02   0.01  -0.02    -0.03   0.06  -0.13    -0.03   0.02  -0.05
  24   7    -0.03  -0.00   0.01    -0.02   0.05   0.20     0.02   0.03   0.08
  25   1    -0.01  -0.01   0.00    -0.03  -0.09   0.05     0.01  -0.02   0.03
  26   1     0.00   0.01   0.01    -0.03   0.08   0.11    -0.06  -0.00   0.03
  27   7     0.01  -0.00   0.01     0.05  -0.20  -0.03     0.02  -0.08  -0.02
  28   1     0.07   0.00   0.01    -0.12  -0.15  -0.13    -0.11  -0.07  -0.06
  29   1    -0.09  -0.08  -0.02     0.34   0.18   0.25     0.22   0.14   0.12
  30   6    -0.05  -0.05  -0.08    -0.03  -0.04  -0.09     0.09   0.09   0.13
  31   8    -0.08  -0.10  -0.03    -0.08  -0.11  -0.00     0.14   0.16   0.04
  32   7     0.01   0.01   0.14     0.03   0.02   0.13    -0.01  -0.01  -0.23
  33   1     0.15   0.02   0.04     0.09   0.07   0.05    -0.23  -0.04  -0.07
  34   1    -0.12   0.01   0.10    -0.08  -0.01   0.11     0.19  -0.01  -0.16
  35   7     0.11   0.10  -0.06     0.09   0.09  -0.08    -0.18  -0.17   0.09
  36   1     0.02   0.08  -0.07    -0.01   0.08  -0.06    -0.02  -0.14   0.11
[...]
  44   1    -0.00  -0.00  -0.00     0.00   0.00   0.00    -0.02  -0.02  -0.01
  45   1     0.00   0.00   0.00     0.00  -0.00  -0.00    -0.01   0.02   0.00
  46   6    -0.00   0.00  -0.01    -0.00  -0.00   0.01    -0.00  -0.00  -0.00
  47   8     0.00  -0.00   0.00    -0.00  -0.00  -0.00     0.00   0.00   0.00
  48   7     0.06   0.06  -0.06    -0.12  -0.12   0.12     0.00   0.00  -0.00
  49   1    -0.25  -0.23   0.20     0.55   0.50  -0.42    -0.01  -0.01   0.01
  50   1     0.05   0.02   0.02    -0.12  -0.04  -0.05    -0.01  -0.00  -0.00
  51   7     0.00  -0.00   0.00    -0.00  -0.00  -0.00    -0.04  -0.03  -0.01
  52   1    -0.01  -0.00  -0.01     0.02   0.01   0.01     0.19   0.09   0.13
  53   1     0.00  -0.00   0.01    -0.00   0.01  -0.01    -0.02   0.03  -0.09
                    142                    143                    144
                        a                      a                      a 
 Frequencies --  3453.0837              3495.4908              3500.2923
 Red. masses --     1.5558                 1.4531                 1.4531
 Frc consts  --     0.0000                 0.0000                 0.0000
 IR Inten    --   134.4113                17.4199                26.2232
 Raman Activ --     0.0000                 0.0000                 0.0000
 Depolar     --     0.0000                 0.0000                 0.0000
 Atom AN      X      Y      Z        X      Y      Z        X      Y      Z
   1   8    -0.01   0.00   0.00     0.00  -0.00  -0.00    -0.00   0.00   0.00
   2   6    -0.00   0.00   0.00    -0.00  -0.00  -0.00     0.00   0.00   0.00
   3   1     0.00  -0.00   0.00    -0.00   0.00   0.00    -0.00   0.00   0.00
   4   1    -0.00   0.00  -0.00    -0.00  -0.00   0.00     0.00  -0.00  -0.00
   5   6     0.00  -0.00  -0.00     0.00   0.00  -0.00    -0.00   0.00   0.00
   6   1    -0.00   0.00   0.00    -0.00   0.00  -0.00     0.00  -0.00  -0.00
   7   1    -0.00  -0.00   0.00    -0.00  -0.00   0.00     0.00   0.00  -0.00
   8   7    -0.00  -0.00  -0.00    -0.00   0.00   0.00    -0.00  -0.00   0.00
   9   6     0.00  -0.00  -0.00     0.00  -0.00   0.00    -0.00  -0.00   0.00
  10   1     0.00  -0.00   0.00    -0.00   0.00  -0.00    -0.00   0.00  -0.00
  11   1     0.00   0.00   0.00     0.00  -0.00  -0.00     0.00   0.00   0.00
  12   1    -0.00   0.00   0.00    -0.00   0.00   0.00     0.00  -0.00  -0.00
  13   6     0.00  -0.00  -0.00     0.00   0.00  -0.00     0.00  -0.00   0.00
  14   1    -0.00   0.00   0.00    -0.00   0.00  -0.00    -0.00   0.00   0.00
  15   1    -0.00  -0.00   0.00    -0.00  -0.00   0.00     0.00   0.00  -0.00
  16   1     0.00  -0.00   0.00    -0.00   0.00  -0.00    -0.00  -0.00  -0.00
  17   6    -0.00   0.00  -0.00     0.00   0.00  -0.00    -0.00  -0.00   0.00
  18   1     0.00  -0.00   0.00    -0.00   0.00  -0.00    -0.00   0.00   0.00
  19   1    -0.00  -0.00   0.00    -0.00  -0.00   0.00     0.00   0.00  -0.00
  20   1    -0.00  -0.00   0.00     0.00   0.00  -0.00     0.00  -0.00   0.00
  21   1     0.02  -0.02  -0.00    -0.00   0.00   0.00     0.01  -0.01  -0.00
  22   6    -0.00  -0.00   0.00    -0.00  -0.00   0.00     0.00   0.00  -0.00
  23   8     0.00   0.00  -0.00    -0.00   0.00  -0.00    -0.00  -0.00   0.00
  24   7     0.00   0.00  -0.00     0.00   0.00  -0.01    -0.00  -0.00   0.00
  25   1    -0.00  -0.00   0.00    -0.01   0.00   0.01     0.00   0.00  -0.00
  26   1    -0.00   0.00  -0.00     0.01  -0.02   0.03     0.00  -0.00   0.00
  27   7    -0.00   0.00  -0.00    -0.11  -0.01   0.15     0.00  -0.00  -0.00
  28   1     0.00   0.00  -0.00    -0.00   0.55  -0.47     0.00  -0.00   0.00
  29   1     0.00  -0.00  -0.00     0.42  -0.51  -0.08    -0.00   0.00   0.00
  30   6    -0.00  -0.00   0.00    -0.00   0.00   0.00     0.00   0.00   0.00
  31   8     0.00   0.00  -0.00     0.00  -0.00  -0.00    -0.00  -0.00  -0.00
  32   7     0.00  -0.00  -0.00    -0.00  -0.00   0.00    -0.00  -0.00   0.00
  33   1     0.00  -0.00   0.00     0.00   0.00  -0.00     0.00   0.00  -0.00
  34   1     0.00   0.00   0.00     0.00   0.00   0.00     0.00   0.00   0.00
  35   7     0.00   0.00  -0.00     0.00   0.00  -0.00    -0.00  -0.00   0.00
  36   1     0.00   0.00   0.00     0.00   0.00   0.00    -0.00  -0.00  -0.00
  37   1    -0.01  -0.02   0.01    -0.00  -0.00   0.00     0.00   0.00  -0.00
  38   6    -0.00  -0.00  -0.00    -0.00  -0.00  -0.00     0.00   0.00   0.00
  39   8     0.00   0.00   0.00     0.00   0.00   0.00    -0.00  -0.00  -0.00
  40   7    -0.04   0.04  -0.00     0.00  -0.00  -0.00    -0.02   0.00  -0.00
  41   1     0.23  -0.08   0.04    -0.00   0.00  -0.00     0.05  -0.02   0.01
  42   1    -0.07  -0.06  -0.02     0.00   0.00   0.00     0.01   0.01   0.00
  43   7    -0.01   0.00  -0.00     0.00  -0.00   0.00     0.17  -0.05   0.04
  44   1     0.02   0.02   0.01    -0.00  -0.00  -0.00    -0.49  -0.46  -0.23
  45   1     0.01  -0.04  -0.00    -0.00   0.00   0.00    -0.15   0.66   0.09
  46   6    -0.00  -0.00   0.00    -0.00  -0.00   0.00     0.00   0.00   0.00
  47   8     0.00   0.00   0.00     0.00   0.00  -0.00    -0.00  -0.00  -0.00
  48   7     0.03   0.01   0.00    -0.00  -0.00  -0.00     0.01   0.00   0.00
  49   1    -0.02  -0.02   0.02    -0.00  -0.00   0.00    -0.00  -0.00   0.00
  50   1    -0.07  -0.02  -0.04     0.00   0.00   0.00    -0.02  -0.01  -0.01
  51   7    -0.15  -0.11  -0.03     0.00   0.00  -0.00    -0.00  -0.00   0.00
  52   1     0.66   0.30   0.46    -0.00  -0.00  -0.00     0.02   0.01   0.01
  53   1    -0.08   0.13  -0.34     0.00  -0.00   0.00    -0.00   0.01  -0.02
                    145                    146                    147
                        a                      a                      a 
 Frequencies --  3502.6852              3521.3823              3527.4996
 Red. masses --     1.4525                 1.9257                 1.9091
 Frc consts  --     0.0000                 0.0000                 0.0000
 IR Inten    --    17.1322                88.8114                11.1913
 Raman Activ --     0.0000                 0.0000                 0.0000
 Depolar     --     0.0000                 0.0000                 0.0000
 Atom AN      X      Y      Z        X      Y      Z        X      Y      Z
   1   8     0.00  -0.00   0.00    -0.00   0.00   0.00     0.00  -0.00   0.00
   2   6     0.00   0.00   0.00    -0.00   0.00   0.00     0.00  -0.00  -0.00
   3   1     0.00  -0.00  -0.00     0.00  -0.00  -0.00    -0.00   0.00   0.00
   4   1    -0.00  -0.00  -0.00     0.00  -0.00   0.00     0.00  -0.00   0.00
   5   6     0.00  -0.00  -0.00     0.00  -0.00  -0.00    -0.00   0.00   0.00
   6   1     0.00   0.00  -0.00    -0.00   0.00   0.00     0.00  -0.00  -0.00
   7   1    -0.00  -0.00   0.00     0.00  -0.00  -0.00     0.00   0.00  -0.00
   8   7    -0.00   0.00  -0.00     0.00  -0.00  -0.00    -0.00   0.00   0.00
   9   6    -0.00  -0.00  -0.00     0.00  -0.00  -0.00    -0.00   0.00   0.00
  10   1    -0.00   0.00  -0.00     0.00  -0.00   0.00     0.00  -0.00   0.00
  11   1    -0.00  -0.00   0.00     0.00   0.00   0.00    -0.00  -0.00  -0.00
  12   1     0.00   0.00   0.00    -0.00   0.00   0.00     0.00  -0.00  -0.00
  13   6     0.00  -0.00  -0.00     0.00  -0.00  -0.00    -0.00   0.00   0.00
  14   1    -0.00   0.00  -0.00    -0.00   0.00   0.00     0.00  -0.00  -0.00
  15   1    -0.00   0.00   0.00    -0.00   0.00   0.00    -0.00   0.00  -0.00
  16   1     0.00   0.00  -0.00     0.00   0.00   0.00    -0.00  -0.00   0.00
  17   6     0.00   0.00  -0.00     0.00   0.00  -0.00     0.00   0.00  -0.00
  18   1    -0.00   0.00  -0.00     0.00  -0.00  -0.00    -0.00   0.00  -0.00
  19   1    -0.00  -0.00   0.00    -0.00  -0.00   0.00    -0.00   0.00   0.00
  20   1    -0.00  -0.00  -0.00     0.00   0.00   0.00    -0.00   0.00   0.00
  21   1    -0.00   0.00  -0.00     0.01  -0.01  -0.00    -0.00   0.00  -0.00
  22   6     0.00  -0.00   0.00    -0.00   0.00   0.00    -0.00  -0.00   0.01
  23   8    -0.00   0.00  -0.00     0.00   0.00  -0.00     0.00   0.00  -0.00
  24   7     0.00  -0.00  -0.00     0.00  -0.01   0.01     0.04  -0.15   0.21
  25   1    -0.01   0.00   0.01    -0.00   0.00   0.00     0.06  -0.02  -0.07
  26   1     0.00  -0.00  -0.00    -0.01   0.02  -0.03    -0.20   0.58  -0.73
  27   7    -0.00   0.00   0.00    -0.00   0.00  -0.00    -0.01   0.02  -0.00
  28   1     0.00   0.00  -0.00    -0.00  -0.00   0.00    -0.00  -0.02   0.01
  29   1     0.00  -0.00  -0.00     0.00  -0.00  -0.00     0.05  -0.06  -0.01
  30   6     0.00   0.00   0.00    -0.00  -0.00  -0.00     0.00   0.00   0.00
  31   8    -0.00  -0.00  -0.00     0.00   0.00   0.00    -0.00  -0.00  -0.00
  32   7     0.07   0.16  -0.05     0.00   0.00   0.00    -0.00  -0.00  -0.00
  33   1    -0.01  -0.08   0.64    -0.00  -0.00   0.00     0.00   0.00   0.00
  34   1    -0.25  -0.53  -0.45    -0.01  -0.01  -0.01    -0.00  -0.00  -0.00
  35   7    -0.01  -0.01  -0.00    -0.00  -0.00  -0.00    -0.00  -0.00  -0.00
  36   1     0.02   0.03   0.03     0.01   0.01   0.01     0.00   0.00   0.00
  37   1     0.01   0.01  -0.01     0.00  -0.00   0.00    -0.00  -0.00   0.00
  38   6     0.00   0.00   0.00    -0.00  -0.00  -0.00     0.00   0.00   0.00
  39   8    -0.00  -0.00  -0.00     0.00   0.00  -0.00     0.00  -0.00   0.00
  40   7    -0.00   0.00  -0.00    -0.00   0.00   0.00     0.00  -0.00   0.00
  41   1     0.00  -0.00   0.00     0.01  -0.00   0.00    -0.00   0.00  -0.00
  42   1    -0.00  -0.00  -0.00    -0.01  -0.00  -0.00    -0.00  -0.00  -0.00
  43   7     0.00  -0.00   0.00     0.01   0.00   0.00    -0.00  -0.00  -0.00
  44   1    -0.00  -0.00  -0.00    -0.02  -0.01  -0.01     0.00   0.00   0.00
  45   1    -0.00   0.00   0.00    -0.00   0.01   0.00     0.00  -0.00  -0.00
  46   6     0.00   0.00  -0.00    -0.01  -0.00  -0.00     0.00   0.00   0.00
  47   8    -0.00  -0.00   0.00     0.00   0.00   0.00    -0.00   0.00  -0.00
  48   7     0.00   0.00   0.00    -0.23  -0.08  -0.09     0.01   0.00   0.00
  49   1     0.01   0.00  -0.00     0.06   0.07  -0.07    -0.01  -0.01   0.01
  50   1    -0.01  -0.00  -0.01     0.82   0.24   0.41    -0.03  -0.01  -0.02
  51   7     0.00   0.00  -0.00    -0.00  -0.02   0.02     0.00   0.00  -0.00
  52   1    -0.00  -0.00  -0.00     0.04   0.01   0.03    -0.00  -0.00  -0.00
  53   1     0.00  -0.00   0.00    -0.02   0.05  -0.11     0.00  -0.00   0.01
                    148                    149                    150
                        a                      a                      a 
 Frequencies --  3537.7729              3545.1827              3552.7356
 Red. masses --     1.8917                 2.0763                 2.0923
 Frc consts  --     0.0000                 0.0000                 0.0000
 IR Inten    --    14.1298                28.6209                46.3029
 Raman Activ --     0.0000                 0.0000                 0.0000
 Depolar     --     0.0000                 0.0000                 0.0000
 Atom AN      X      Y      Z        X      Y      Z        X      Y      Z
   1   8    -0.00   0.00   0.00     0.00  -0.00   0.00    -0.00   0.00   0.00
   2   6     0.00  -0.00  -0.00     0.00   0.00  -0.00     0.00   0.00  -0.00
   3   1    -0.00  -0.00  -0.00     0.00  -0.00  -0.00     0.00  -0.00   0.00
   4   1     0.00  -0.00   0.00     0.00  -0.00   0.00     0.00   0.00   0.00
   5   6    -0.00   0.00   0.00    -0.00  -0.00   0.00     0.00  -0.00  -0.00
   6   1     0.00  -0.00  -0.00    -0.00   0.00   0.00    -0.00   0.00   0.00
   7   1    -0.00   0.00   0.00     0.00   0.00  -0.00    -0.00  -0.00   0.00
   8   7    -0.00   0.00  -0.00     0.00  -0.00   0.00     0.00  -0.00  -0.00
   9   6    -0.00   0.00   0.00    -0.00  -0.00  -0.00    -0.00   0.00   0.00
  10   1     0.00  -0.00   0.00    -0.00  -0.00  -0.00    -0.00   0.00   0.00
  11   1    -0.00  -0.00  -0.00     0.00   0.00   0.00    -0.00   0.00   0.00
  12   1     0.00  -0.00  -0.00    -0.00   0.00   0.00     0.00  -0.00  -0.00
  13   6    -0.00   0.00   0.00     0.00  -0.00   0.00    -0.00   0.00   0.00
  14   1    -0.00   0.00  -0.00    -0.00   0.00   0.00     0.00  -0.00  -0.00
  15   1    -0.00  -0.00   0.00     0.00   0.00  -0.00    -0.00   0.00   0.00
  16   1     0.00  -0.00   0.00    -0.00   0.00  -0.00     0.00  -0.00   0.00
  17   6    -0.00   0.00   0.00    -0.00  -0.00   0.00     0.00   0.00   0.00
  18   1     0.00  -0.00   0.00    -0.00  -0.00  -0.00     0.00  -0.00   0.00
  19   1    -0.00   0.00  -0.00     0.00   0.00  -0.00    -0.00   0.00  -0.00
  20   1    -0.00  -0.00  -0.00     0.00  -0.00   0.00    -0.00  -0.00   0.00
  21   1    -0.00  -0.00  -0.00    -0.00   0.00   0.00     0.01  -0.00  -0.00
  22   6    -0.00   0.00  -0.00     0.00   0.00  -0.00    -0.00   0.00   0.00
  23   8     0.00  -0.00   0.00    -0.00  -0.00   0.00    -0.00  -0.00  -0.00
  24   7    -0.00   0.00  -0.00     0.00   0.00  -0.00     0.00   0.00  -0.00
  25   1    -0.00   0.00   0.00    -0.00   0.00   0.00    -0.00   0.00   0.00
  26   1     0.00  -0.00   0.00     0.00  -0.00   0.00     0.00  -0.00   0.00
  27   7     0.00  -0.00   0.00     0.00  -0.00   0.00     0.00  -0.00   0.00
  28   1     0.00   0.00  -0.00     0.00   0.00  -0.00     0.00   0.00  -0.00
  29   1    -0.00   0.00   0.00    -0.00   0.00   0.00    -0.00   0.00   0.00
  30   6    -0.00  -0.01   0.00     0.00   0.00   0.00    -0.00  -0.00  -0.00
  31   8     0.00   0.00   0.00     0.00  -0.00  -0.00     0.00   0.00   0.00
  32   7     0.00  -0.00   0.03    -0.00  -0.00  -0.00     0.00   0.00   0.00
  33   1     0.00   0.01  -0.09    -0.00   0.00   0.00     0.00   0.00  -0.00
  34   1    -0.00  -0.01  -0.01     0.00   0.00   0.00    -0.00  -0.00  -0.00
  35   7    -0.11  -0.18  -0.15    -0.00  -0.00  -0.00    -0.00  -0.00  -0.00
  36   1     0.39   0.66   0.58     0.00   0.00   0.00     0.00   0.01   0.00
  37   1     0.03   0.05  -0.04     0.00   0.00  -0.00     0.00   0.00  -0.00
  38   6    -0.00  -0.00  -0.00     0.01  -0.00   0.00    -0.00  -0.00  -0.00
  39   8     0.00   0.00   0.00    -0.00  -0.00  -0.00     0.00   0.00   0.00
  40   7     0.00  -0.00   0.00     0.24   0.13   0.06    -0.00   0.00  -0.00
  41   1    -0.00   0.00  -0.00    -0.30   0.12  -0.05     0.01  -0.00   0.00
  42   1     0.00   0.00   0.00    -0.63  -0.60  -0.19    -0.00  -0.00  -0.00
  43   7    -0.00   0.00   0.00    -0.01  -0.04  -0.01     0.00   0.01   0.00
  44   1     0.00   0.00   0.00     0.05   0.04   0.02    -0.02  -0.02  -0.01
  45   1     0.00  -0.00  -0.00    -0.03   0.11   0.01     0.00  -0.01  -0.00
  46   6    -0.00  -0.00  -0.00    -0.00   0.00  -0.00    -0.01   0.00  -0.01
  47   8     0.00   0.00   0.00     0.00  -0.00   0.00     0.00   0.00   0.00
  48   7     0.00   0.00   0.00     0.00   0.00   0.00    -0.02  -0.01  -0.01
  49   1     0.00  -0.00   0.00    -0.00  -0.00   0.00     0.01   0.01  -0.01
  50   1    -0.02  -0.00  -0.01    -0.00  -0.00  -0.00     0.08   0.02   0.04
  51   7     0.00   0.00   0.00    -0.00   0.00  -0.00    -0.11   0.05  -0.26
  52   1    -0.01  -0.00  -0.00     0.00   0.00   0.00     0.28   0.14   0.18
  53   1    -0.00   0.00  -0.00     0.00  -0.00   0.00     0.15  -0.34   0.80
                    151                    152                    153
                        a                      a                      a 
 Frequencies --  3559.9227              3564.8609              3568.5871
 Red. masses --     2.1753                 2.1837                 2.1781
 Frc consts  --     0.0000                 0.0000                 0.0000
 IR Inten    --    10.1113                22.6609                14.3703
 Raman Activ --     0.0000                 0.0000                 0.0000
 Depolar     --     0.0000                 0.0000                 0.0000
 Atom AN      X      Y      Z        X      Y      Z        X      Y      Z
   1   8     0.00  -0.00  -0.00     0.00  -0.00  -0.00    -0.00   0.00   0.00
   2   6    -0.00  -0.00   0.00     0.00   0.00  -0.00     0.00   0.00  -0.00
   3   1     0.00  -0.00  -0.00     0.00  -0.00  -0.00     0.00  -0.00  -0.00
   4   1    -0.00   0.00  -0.00    -0.00   0.00   0.00     0.00   0.00   0.00
   5   6     0.00   0.00  -0.00    -0.00   0.00   0.00     0.00   0.00  -0.00
   6   1    -0.00   0.00  -0.00    -0.00  -0.00  -0.00     0.00  -0.00  -0.00
   7   1    -0.00  -0.00   0.00    -0.00  -0.00   0.00    -0.00   0.00   0.00
   8   7    -0.00  -0.00   0.00     0.00  -0.00   0.00    -0.00   0.00   0.00
   9   6     0.00  -0.00   0.00    -0.00  -0.00  -0.00    -0.00   0.00  -0.00
  10   1    -0.00   0.00  -0.00     0.00  -0.00  -0.00     0.00  -0.00   0.00
  11   1    -0.00  -0.00  -0.00     0.00   0.00   0.00    -0.00   0.00   0.00
  12   1    -0.00   0.00   0.00    -0.00   0.00   0.00     0.00  -0.00  -0.00
  13   6     0.00   0.00  -0.00    -0.00  -0.00  -0.00    -0.00   0.00   0.00
  14   1    -0.00   0.00  -0.00    -0.00  -0.00   0.00     0.00  -0.00  -0.00
  15   1    -0.00  -0.00   0.00     0.00  -0.00   0.00    -0.00   0.00   0.00
  16   1     0.00   0.00  -0.00     0.00  -0.00   0.00     0.00  -0.00   0.00
  17   6     0.00   0.00  -0.00    -0.00  -0.00   0.00     0.00   0.00  -0.00
  18   1     0.00   0.00  -0.00     0.00  -0.00  -0.00     0.00  -0.00   0.00
  19   1    -0.00  -0.00   0.00    -0.00  -0.00   0.00    -0.00  -0.00   0.00
  20   1     0.00   0.00  -0.00     0.00   0.00  -0.00    -0.00  -0.00   0.00
  21   1    -0.00   0.00   0.00    -0.01   0.00   0.00     0.00  -0.00  -0.00
  22   6    -0.00   0.01  -0.00     0.00  -0.00  -0.00     0.00  -0.00   0.00
  23   8     0.00  -0.00   0.00    -0.00   0.00  -0.00    -0.00   0.00  -0.00
  24   7    -0.00   0.01  -0.02    -0.00   0.00   0.00     0.00  -0.00  -0.00
  25   1    -0.01   0.00   0.01     0.00  -0.00  -0.00    -0.00   0.00   0.01
  26   1     0.02  -0.05   0.06     0.00  -0.00   0.00     0.00  -0.00  -0.00
  27   7    -0.11   0.26  -0.08    -0.00   0.00  -0.00    -0.00   0.00  -0.00
  28   1    -0.02  -0.48   0.42    -0.00  -0.00   0.00    -0.00  -0.00   0.00
  29   1     0.46  -0.52  -0.11     0.00  -0.00  -0.00     0.00  -0.00  -0.00
  30   6    -0.00  -0.00  -0.00     0.00   0.00   0.00    -0.00  -0.00  -0.01
  31   8     0.00   0.00   0.00    -0.00   0.00  -0.00     0.00   0.00   0.00
  32   7     0.00   0.00   0.00    -0.00   0.00   0.00    -0.05  -0.09  -0.28
  33   1     0.00   0.00  -0.00     0.00   0.00  -0.00    -0.02  -0.11   0.71
  34   1    -0.00  -0.00  -0.00     0.00  -0.00  -0.00     0.21   0.46   0.36
  35   7    -0.00  -0.00  -0.00     0.00   0.00   0.00    -0.01  -0.01  -0.01
  36   1     0.00   0.00   0.00    -0.00  -0.00  -0.00     0.03   0.05   0.05
  37   1     0.00   0.00  -0.00    -0.00  -0.00   0.00     0.00   0.00  -0.00
  38   6    -0.00  -0.00  -0.00     0.00   0.01   0.00    -0.00  -0.00  -0.00
  39   8     0.00   0.00   0.00    -0.00  -0.00  -0.00    -0.00   0.00   0.00
  40   7     0.00   0.00   0.00     0.03   0.02   0.01    -0.00  -0.00  -0.00
  41   1    -0.00   0.00  -0.00    -0.04   0.02  -0.01     0.00  -0.00   0.00
  42   1    -0.00  -0.00  -0.00    -0.09  -0.08  -0.03     0.00   0.00   0.00
  43   7    -0.00  -0.00  -0.00     0.08   0.28   0.08     0.00   0.00   0.00
  44   1     0.00   0.00   0.00    -0.47  -0.41  -0.22    -0.00  -0.00  -0.00
  45   1    -0.00   0.00   0.00     0.18  -0.65  -0.08     0.00  -0.00  -0.00
  46   6    -0.00   0.00  -0.00     0.00  -0.00   0.00    -0.00  -0.00  -0.00
  47   8     0.00  -0.00   0.00    -0.00   0.00  -0.00     0.00   0.00   0.00
  48   7    -0.00  -0.00   0.00     0.00   0.00   0.00    -0.00  -0.00   0.00
  49   1     0.00   0.00  -0.00    -0.00  -0.00   0.00     0.01   0.00  -0.00
  50   1     0.00   0.00   0.00    -0.01  -0.00  -0.00     0.00   0.00   0.00
  51   7    -0.00   0.00  -0.00     0.00  -0.00   0.01    -0.00   0.00  -0.00
  52   1     0.00   0.00   0.00    -0.01  -0.01  -0.01     0.00   0.00   0.00
  53   1     0.00  -0.00   0.00    -0.00   0.01  -0.02     0.00  -0.00   0.00
