 Entering Gaussian System
 *********************************************
 Gaussian 98:
 frequency output generated by the xtb code
 *********************************************
                         Standard orientation:
 --------------------------------------------------------------------
  Center     Atomic     Atomic              Coordinates (Angstroms)
  Number     Number      Type              X           Y           Z
 --------------------------------------------------------------------
    1          8             0        0.436245    1.521647   -0.679167
    2          6             0       -0.585157    1.929769   -1.545767
    3          1             0       -1.090848    2.774968   -1.071028
    4          1             0       -0.148681    2.287034   -2.491390
    5          6             0       -1.569496    0.816247   -1.921806
    6          1             0       -0.977119   -0.049710   -2.230555
    7          1             0       -2.170787    1.159304   -2.766333
    8          7             0       -2.495587    0.366667   -0.850920
    9          6             0       -1.751788   -0.130643    0.320050
   10          1             0       -2.460882   -0.598579    1.000300
   11          1             0       -1.280401    0.702918    0.834451
   12          1             0       -0.995650   -0.845036    0.002628
   13          6             0       -3.314307   -0.739625   -1.374860
   14          1             0       -2.674057   -1.570539   -1.664297
   15          1             0       -3.888883   -0.412153   -2.239442
   16          1             0       -3.998200   -1.067094   -0.592676
   17          6             0       -3.395796    1.450789   -0.425259
   18          1             0       -3.893239    1.891478   -1.286110
   19          1             0       -2.840428    2.209332    0.120890
   20          1             0       -4.134410    1.025503    0.254263
   21          1             0        0.683076    0.587619   -0.923081
   22          6             0        6.295491   -2.961076   -2.167477
   23          8             0        5.181316   -2.493110   -1.975166
   24          7             0        7.345313   -2.192117   -2.544765
   25          1             0        7.169061   -1.234200   -2.790601
   26          1             0        8.222685   -2.593688   -2.821094
   27          7             0        6.559250   -4.281916   -2.017622
   28          1             0        7.495814   -4.640951   -2.055042
   29          1             0        5.848886   -4.867273   -1.615291
   30          6             0       -0.766043    3.093395    2.420837
   31          8             0       -1.765440    2.529476    1.984865
   32          7             0        0.424206    3.026851    1.794714
   33          1             0        0.515350    2.471516    0.951495
   34          1             0        1.243487    3.463980    2.173636
   35          7             0       -0.796357    3.800451    3.580328
   36          1             0       -0.023135    4.372129    3.867991
   37          1             0       -1.689888    3.977160    4.003430
   38          6             0        2.009642   -1.392018   -1.557946
   39          8             0        0.843160   -0.999771   -1.410700
   40          7             0        3.071200   -0.586181   -1.374884
   41          1             0        2.942252    0.362409   -1.073083
   42          1             0        3.998345   -0.965218   -1.495938
   43          7             0        2.306615   -2.651012   -1.917682
   44          1             0        3.275690   -2.911384   -2.032664
   45          1             0        1.571742   -3.309310   -2.097830
   46          6             0       -4.630494   -0.033850    2.813461
   47          8             0       -4.505369   -0.446305    1.666022
   48          7             0       -5.584690   -0.528542    3.642714
   49          1             0       -6.126484   -1.311724    3.324162
   50          1             0       -5.629586   -0.284845    4.614871
   51          7             0       -3.843703    0.933997    3.332438
   52          1             0       -4.023133    1.297131    4.250472
   53          1             0       -3.168015    1.423075    2.756514
 --------------------------------------------------------------------
     1 basis functions        1 primitive gaussians
     1 alpha electrons        1 beta electrons

 Harmonic frequencies (cm**-1), IR intensities (km*mol⁻¹),
 Raman scattering activities (A**4/amu), Raman depolarization ratios,
 reduced masses (AMU), force constants (mDyne/A) and normal coordinates:
                      1                      2                      3
                        a                      a                      a 
 Frequencies --     6.2269                 9.9131                12.7846
 Red. masses --    11.3431                12.1032                12.2233
 Frc consts  --     0.0000                 0.0000                 0.0000
 IR Inten    --     0.2034                 1.2083                 1.0137
 Raman Activ --     0.0000                 0.0000                 0.0000
 Depolar     --     0.0000                 0.0000                 0.0000
 Atom AN      X      Y      Z        X      Y      Z        X      Y      Z
   1   8    -0.04   0.04  -0.09     0.06  -0.15   0.12    -0.03  -0.11  -0.12
   2   6    -0.06   0.02  -0.05     0.09  -0.13   0.06    -0.03  -0.05  -0.08
   3   1    -0.02   0.00  -0.01     0.03  -0.03   0.00     0.01  -0.01  -0.02
   4   1    -0.03   0.01  -0.02     0.04  -0.05   0.02    -0.01  -0.02  -0.03
   5   6    -0.06   0.02  -0.03     0.08  -0.11   0.06    -0.08  -0.01  -0.05
   6   1    -0.02   0.01  -0.01     0.02  -0.04   0.03    -0.04  -0.01  -0.02
   7   1    -0.02   0.00  -0.00     0.03  -0.04   0.01    -0.03   0.00  -0.01
   8   7    -0.03  -0.00  -0.01     0.03  -0.06   0.04    -0.08   0.03  -0.03
   9   6     0.01   0.00  -0.03    -0.03  -0.03   0.08    -0.06  -0.03  -0.06
  10   1     0.01  -0.00  -0.00    -0.02   0.00   0.02    -0.02  -0.00  -0.01
  11   1     0.00   0.00  -0.01    -0.01  -0.01   0.02     0.00  -0.02  -0.02
  12   1     0.00   0.00  -0.01    -0.01  -0.02   0.04    -0.03  -0.02  -0.03
  13   6    -0.02  -0.01   0.01     0.02  -0.05   0.04    -0.15   0.08  -0.02
  14   1    -0.01  -0.00  -0.00     0.00  -0.02   0.03    -0.06   0.01  -0.02
  15   1    -0.01  -0.00   0.01     0.02  -0.02   0.00    -0.05   0.04   0.00
  16   1    -0.00  -0.01   0.01    -0.01  -0.00   0.01    -0.04   0.03   0.00
  17   6    -0.03  -0.02   0.02     0.04  -0.02  -0.03     0.01   0.07   0.02
  18   1    -0.02  -0.01   0.01     0.02  -0.01  -0.02     0.00   0.03   0.01
  19   1    -0.01  -0.00   0.00     0.01  -0.00  -0.01     0.02   0.01   0.01
  20   1    -0.00  -0.01   0.01     0.00   0.01  -0.01    -0.00   0.03   0.01
  21   1    -0.01   0.01  -0.03     0.01  -0.04   0.04    -0.02  -0.03  -0.03
  22   6    -0.02  -0.02   0.10     0.06   0.08  -0.16     0.02   0.16   0.14
  23   8    -0.03   0.00   0.04     0.04  -0.02  -0.06    -0.06   0.00   0.09
  24   7     0.13   0.04   0.66     0.03   0.24   0.03    -0.08   0.32   0.15
  25   1     0.07   0.04   0.27    -0.00   0.08   0.08    -0.06   0.07   0.02
  26   1     0.04   0.02   0.19     0.01   0.10  -0.02    -0.00   0.12   0.05
  27   7    -0.17  -0.10  -0.37     0.14   0.06  -0.51     0.23   0.22   0.22
  28   1    -0.05  -0.04  -0.08     0.04   0.03  -0.16     0.08   0.10   0.07
  29   1    -0.09  -0.06  -0.21     0.04  -0.02  -0.18     0.08   0.03   0.06
  30   6     0.02   0.02  -0.05    -0.02   0.00   0.01     0.17  -0.15  -0.00
  31   8     0.02   0.00  -0.03    -0.02   0.03  -0.01     0.15  -0.10   0.02
  32   7     0.01   0.04  -0.09     0.00  -0.06   0.07     0.15  -0.18  -0.07
  33   1    -0.00   0.01  -0.02     0.01  -0.02   0.02     0.02  -0.04  -0.03
  34   1     0.00   0.02  -0.03     0.00  -0.02   0.02     0.05  -0.07  -0.02
  35   7     0.04   0.03  -0.06    -0.05   0.04  -0.01     0.28  -0.23   0.04
  36   1     0.01   0.01  -0.02    -0.01   0.01   0.00     0.09  -0.08   0.01
  37   1     0.01   0.00  -0.01    -0.02   0.02  -0.01     0.08  -0.06   0.03
  38   6    -0.03   0.03  -0.07     0.03  -0.12   0.10    -0.10  -0.08  -0.08
  39   8    -0.03   0.05  -0.12     0.03  -0.17   0.19    -0.12  -0.11  -0.12
  40   7    -0.02   0.00   0.04     0.02  -0.10   0.05    -0.12  -0.07  -0.08
  41   1    -0.01  -0.00   0.02     0.00  -0.03   0.02    -0.04  -0.02  -0.02
  42   1    -0.01  -0.00   0.01     0.01  -0.02   0.00    -0.03  -0.02  -0.01
  43   7    -0.03   0.05  -0.12     0.04  -0.12   0.08    -0.08  -0.09  -0.06
  44   1    -0.01   0.01  -0.03     0.01  -0.03   0.01    -0.02  -0.02  -0.01
  45   1    -0.01   0.02  -0.06     0.01  -0.04   0.04    -0.02  -0.03  -0.01
  46   6     0.08  -0.05   0.05    -0.14   0.15  -0.03    -0.00   0.08   0.02
  47   8     0.06  -0.04   0.05    -0.11   0.11  -0.01    -0.05   0.11   0.01
  48   7     0.13  -0.07   0.09    -0.21   0.24  -0.06    -0.03   0.14   0.02
  49   1     0.03  -0.02   0.03    -0.06   0.06  -0.01    -0.02   0.05   0.00
  50   1     0.04  -0.02   0.02    -0.06   0.07  -0.02     0.00   0.03   0.01
  51   7     0.09  -0.04   0.03    -0.14   0.16  -0.04     0.08   0.02   0.03
  52   1     0.03  -0.01   0.01    -0.05   0.06  -0.02     0.03   0.00   0.01
  53   1     0.02  -0.01   0.00    -0.02   0.03  -0.01     0.03  -0.00   0.01
                      4                      5                      6
                        a                      a                      a 
 Frequencies --    21.3491                24.6931                30.2686
 Red. masses --    12.1780                12.2785                11.7894
 Frc consts  --     0.0000                 0.0000                 0.0000
 IR Inten    --     2.1797                 2.8799                 1.4925
 Raman Activ --     0.0000                 0.0000                 0.0000
 Depolar     --     0.0000                 0.0000                 0.0000
 Atom AN      X      Y      Z        X      Y      Z        X      Y      Z
   1   8     0.06   0.04   0.06     0.06  -0.12   0.17     0.06   0.04   0.04
   2   6     0.06   0.09   0.07     0.06  -0.03   0.17     0.04   0.03   0.04
   3   1     0.02   0.02   0.03     0.02  -0.02   0.07     0.01   0.01   0.01
   4   1     0.02   0.04   0.03     0.02   0.01   0.06     0.01   0.01   0.01
   5   6     0.05   0.11   0.00     0.05   0.01   0.09     0.06   0.03   0.03
   6   1     0.01   0.04  -0.01     0.01   0.01   0.02     0.02   0.01   0.01
   7   1     0.02   0.05   0.00     0.02   0.02   0.03     0.02   0.01   0.01
   8   7     0.04   0.08  -0.03     0.02  -0.03   0.06     0.05   0.02   0.02
   9   6     0.02   0.05  -0.03    -0.01  -0.03   0.07     0.04   0.04   0.03
  10   1     0.00   0.01  -0.02    -0.01  -0.01   0.01     0.01   0.01   0.01
  11   1     0.00   0.01   0.00    -0.01  -0.01   0.03     0.00   0.01   0.01
  12   1     0.01   0.02  -0.01     0.00  -0.01   0.02     0.02   0.02   0.01
  13   6     0.06   0.08  -0.08     0.06  -0.03   0.02     0.08   0.00   0.01
  14   1     0.02   0.03  -0.02     0.02  -0.00   0.01     0.03   0.00   0.01
  15   1     0.02   0.03  -0.02     0.02  -0.01  -0.00     0.02  -0.00  -0.00
  16   1     0.01   0.01  -0.03     0.01  -0.01  -0.00     0.02  -0.00   0.00
  17   6     0.01   0.05  -0.01    -0.01  -0.04   0.04     0.02   0.01  -0.00
  18   1     0.00   0.02  -0.00    -0.00  -0.02   0.01     0.01  -0.00  -0.00
  19   1    -0.00   0.01   0.00    -0.01  -0.01   0.01     0.00   0.01  -0.00
  20   1     0.00   0.01  -0.01    -0.00  -0.02   0.01     0.01  -0.00  -0.00
  21   1     0.01   0.01   0.01     0.01  -0.02   0.02     0.01   0.01   0.02
  22   6    -0.06  -0.04   0.03     0.05  -0.01   0.01    -0.02  -0.02   0.01
  23   8    -0.15  -0.33   0.26    -0.02  -0.08  -0.30    -0.10  -0.11  -0.19
  24   7    -0.29   0.23  -0.06     0.08   0.02   0.13    -0.01   0.05   0.20
  25   1    -0.14   0.06   0.01     0.01  -0.01  -0.02    -0.01   0.01   0.04
  26   1    -0.06   0.12  -0.06     0.04   0.01   0.09     0.02   0.03   0.09
  27   7     0.26   0.01  -0.11     0.13   0.03   0.25     0.04  -0.00   0.07
  28   1     0.09   0.06  -0.08     0.04   0.02   0.12     0.02   0.01   0.06
  29   1     0.12  -0.05  -0.02     0.02   0.01   0.04     0.00  -0.02  -0.02
  30   6    -0.04   0.11  -0.03    -0.06   0.07   0.01    -0.03   0.02   0.04
  31   8    -0.01   0.06  -0.02    -0.04   0.05  -0.00    -0.03   0.04   0.02
  32   7    -0.02   0.11   0.02    -0.01  -0.02   0.12    -0.02   0.01   0.07
  33   1     0.01   0.02   0.01     0.01  -0.02   0.04    -0.00   0.00   0.02
  34   1    -0.01   0.05   0.00    -0.01   0.01   0.03    -0.01  -0.00   0.03
  35   7    -0.10   0.21  -0.08    -0.14   0.22  -0.08    -0.05   0.02   0.05
  36   1    -0.04   0.07  -0.03    -0.04   0.06  -0.02    -0.01   0.00   0.02
  37   1    -0.03   0.05  -0.03    -0.05   0.07  -0.04    -0.02   0.01   0.01
  38   6    -0.08  -0.09   0.04    -0.01  -0.05  -0.22    -0.03  -0.01  -0.07
  39   8    -0.05   0.02  -0.00     0.00  -0.05  -0.12    -0.01  -0.01   0.14
  40   7    -0.01  -0.21   0.11     0.02  -0.13  -0.07    -0.02   0.11  -0.72
  41   1     0.02  -0.06   0.05     0.02  -0.06   0.05     0.01   0.05  -0.24
  42   1    -0.01  -0.08   0.05     0.00  -0.04  -0.04    -0.01   0.02  -0.20
  43   7    -0.19  -0.11  -0.00    -0.06   0.04  -0.58    -0.09  -0.13   0.27
  44   1    -0.06  -0.06   0.02    -0.02   0.00  -0.16    -0.03  -0.04   0.05
  45   1    -0.07  -0.01  -0.00    -0.02   0.02  -0.18    -0.03  -0.06   0.21
  46   6     0.09  -0.11  -0.03    -0.04   0.04   0.04     0.00  -0.03  -0.02
  47   8     0.04  -0.04  -0.07    -0.02  -0.01   0.07     0.03  -0.03  -0.03
  48   7     0.19  -0.22   0.01    -0.05   0.06   0.05     0.02  -0.08  -0.03
  49   1     0.05  -0.06  -0.00    -0.01   0.01   0.02     0.01  -0.02  -0.01
  50   1     0.06  -0.07   0.00    -0.02   0.03   0.01    -0.00  -0.02  -0.01
  51   7     0.10  -0.12  -0.02    -0.07   0.07   0.01    -0.03  -0.01  -0.02
  52   1     0.04  -0.05   0.01    -0.02   0.03  -0.00    -0.01  -0.01  -0.00
  53   1     0.01  -0.02  -0.01    -0.01   0.01   0.00    -0.01   0.00  -0.00
                      7                      8                      9
                        a                      a                      a 
 Frequencies --    33.1349                35.1007                42.7941
 Red. masses --    12.3086                12.5880                13.4990
 Frc consts  --     0.0000                 0.0000                 0.0000
 IR Inten    --     0.1162                 0.9824                 0.7043
 Raman Activ --     0.0000                 0.0000                 0.0000
 Depolar     --     0.0000                 0.0000                 0.0000
 Atom AN      X      Y      Z        X      Y      Z        X      Y      Z
   1   8     0.02  -0.14   0.08     0.06  -0.13   0.09    -0.00  -0.12   0.08
   2   6     0.09  -0.09  -0.00     0.07  -0.00   0.11     0.00  -0.02   0.10
   3   1     0.04  -0.01  -0.02     0.03  -0.01   0.05     0.01  -0.01   0.05
   4   1     0.05  -0.05  -0.00     0.03   0.02   0.04     0.00   0.01   0.03
   5   6     0.02  -0.04   0.02     0.04   0.06  -0.01    -0.03   0.02   0.04
   6   1    -0.01  -0.02   0.01     0.00   0.02  -0.01    -0.01   0.01  -0.00
   7   1     0.01  -0.00   0.00     0.02   0.04  -0.00    -0.00   0.02   0.02
   8   7    -0.03   0.06   0.02    -0.03   0.03  -0.08    -0.05  -0.00   0.01
   9   6    -0.07  -0.05   0.00    -0.08   0.01  -0.04    -0.06  -0.07  -0.00
  10   1    -0.03  -0.00  -0.00    -0.03   0.00  -0.02    -0.02  -0.02  -0.01
  11   1     0.00  -0.03   0.01    -0.03   0.00  -0.00    -0.01  -0.03   0.01
  12   1    -0.04  -0.03  -0.01    -0.02   0.00  -0.00    -0.02  -0.02  -0.01
  13   6    -0.16   0.16   0.00     0.01   0.04  -0.14    -0.07   0.04  -0.04
  14   1    -0.07   0.03  -0.01     0.01   0.01  -0.03    -0.03   0.01  -0.02
  15   1    -0.04   0.07   0.01     0.02   0.01  -0.05    -0.02   0.03  -0.01
  16   1    -0.05   0.06   0.00    -0.01   0.01  -0.06    -0.02   0.01  -0.02
  17   6     0.10   0.15   0.05    -0.06   0.02  -0.10    -0.02   0.00   0.05
  18   1     0.05   0.07   0.02    -0.01  -0.00  -0.03    -0.00   0.01   0.02
  19   1     0.05   0.02   0.03    -0.02   0.01  -0.03    -0.00  -0.01   0.02
  20   1     0.01   0.06   0.00    -0.02   0.00  -0.03    -0.01  -0.00   0.01
  21   1    -0.01  -0.04   0.03    -0.01  -0.04   0.02    -0.00  -0.03  -0.00
  22   6     0.01   0.05  -0.05    -0.05   0.10  -0.03     0.04  -0.02   0.12
  23   8     0.02   0.14  -0.22    -0.02   0.23  -0.15     0.15   0.05   0.56
  24   7     0.10  -0.03   0.03     0.05  -0.00   0.01    -0.01  -0.07  -0.12
  25   1     0.05  -0.01  -0.01     0.04   0.00  -0.01     0.00  -0.00   0.03
  26   1     0.03  -0.03   0.04     0.01  -0.03   0.03    -0.03  -0.03  -0.10
  27   7    -0.08   0.05   0.06    -0.18   0.09   0.05    -0.03  -0.07  -0.13
  28   1    -0.03  -0.00   0.05    -0.06   0.00   0.03    -0.02  -0.04  -0.11
  29   1    -0.04   0.03   0.00    -0.07   0.05   0.01     0.01  -0.01   0.02
  30   6     0.05   0.10  -0.02    -0.00  -0.04  -0.05     0.01  -0.01  -0.02
  31   8     0.12  -0.16   0.18    -0.04   0.14  -0.21     0.03  -0.06   0.02
  32   7    -0.02   0.29  -0.17     0.12  -0.41   0.23     0.07  -0.20   0.11
  33   1     0.00   0.03  -0.01     0.03  -0.10   0.05     0.02  -0.06   0.04
  34   1    -0.01   0.11  -0.07     0.03  -0.11   0.07     0.01  -0.01   0.00
  35   7     0.05   0.25  -0.11    -0.09   0.09  -0.14    -0.06   0.24  -0.17
  36   1    -0.01   0.12  -0.08    -0.01  -0.02  -0.00    -0.01   0.06  -0.05
  37   1     0.02   0.03  -0.01    -0.04   0.08  -0.09    -0.02   0.08  -0.06
  38   6    -0.02  -0.07   0.07    -0.07  -0.05   0.09     0.04   0.06  -0.14
  39   8    -0.04  -0.15   0.12    -0.11  -0.14   0.07     0.02  -0.03  -0.13
  40   7    -0.06  -0.02   0.05    -0.13   0.01   0.13    -0.02   0.19  -0.33
  41   1    -0.03  -0.01   0.01    -0.06   0.01   0.01    -0.02   0.04  -0.05
  42   1    -0.01   0.01  -0.01    -0.03   0.03   0.02     0.00   0.05  -0.03
  43   7     0.04  -0.06   0.07     0.02  -0.06   0.17     0.14   0.08  -0.13
  44   1     0.01   0.00  -0.01     0.01   0.01   0.02     0.05   0.02   0.02
  45   1     0.02  -0.02   0.01     0.02  -0.02   0.02     0.05  -0.01   0.04
  46   6    -0.04  -0.09  -0.05     0.10   0.01  -0.01    -0.03  -0.00   0.03
  47   8    -0.20   0.12  -0.15    -0.05   0.07  -0.05    -0.10   0.03   0.02
  48   7    -0.06  -0.12  -0.08     0.32  -0.13   0.14    -0.10   0.10   0.02
  49   1    -0.05   0.01  -0.05     0.07  -0.03   0.05    -0.04   0.04   0.00
  50   1     0.01  -0.09  -0.01     0.11  -0.03   0.04    -0.00   0.00   0.01
  51   7     0.16  -0.34   0.10     0.11   0.06  -0.10     0.11  -0.14   0.07
  52   1     0.07  -0.13   0.05     0.07  -0.01  -0.01     0.03  -0.03   0.02
  53   1     0.04  -0.08   0.03     0.00   0.03  -0.05     0.02  -0.04   0.01
                     10                     11                     12
                        a                      a                      a 
 Frequencies --    47.8674                48.4843                54.4780
 Red. masses --    12.6829                12.8344                12.9765
 Frc consts  --     0.0000                 0.0000                 0.0000
 IR Inten    --     3.8541                 1.0245                 0.8406
 Raman Activ --     0.0000                 0.0000                 0.0000
 Depolar     --     0.0000                 0.0000                 0.0000
 Atom AN      X      Y      Z        X      Y      Z        X      Y      Z
   1   8     0.09   0.05  -0.06    -0.01   0.08   0.02     0.11  -0.13   0.17
   2   6    -0.02   0.09   0.07    -0.03   0.06   0.03     0.13  -0.05   0.13
   3   1    -0.01   0.00   0.06    -0.02   0.00   0.02     0.04  -0.02   0.05
   4   1    -0.03   0.06   0.02    -0.01   0.04   0.01     0.05   0.00   0.05
   5   6     0.01   0.08   0.05     0.03   0.03  -0.02     0.13  -0.01   0.03
   6   1     0.01   0.03  -0.01     0.02   0.02  -0.01     0.04  -0.00   0.00
   7   1    -0.02   0.03   0.03     0.01   0.01  -0.01     0.05   0.01   0.01
   8   7     0.09  -0.04   0.07     0.02  -0.05  -0.06     0.10  -0.07  -0.04
   9   6     0.15  -0.02   0.03     0.01  -0.00  -0.04     0.03  -0.07  -0.00
  10   1     0.06  -0.03   0.01     0.01  -0.01  -0.01    -0.00  -0.02  -0.01
  11   1     0.03  -0.00   0.01    -0.01   0.01  -0.01     0.00  -0.02   0.00
  12   1     0.05   0.01  -0.01     0.01   0.01  -0.01     0.01  -0.02   0.01
  13   6     0.15  -0.08   0.05     0.11  -0.09  -0.09     0.16  -0.08  -0.11
  14   1     0.06  -0.01   0.00     0.05  -0.01  -0.02     0.06  -0.02  -0.02
  15   1     0.03  -0.03   0.02     0.03  -0.04  -0.03     0.06  -0.02  -0.04
  16   1     0.06  -0.05   0.02     0.03  -0.04  -0.04     0.03  -0.03  -0.05
  17   6     0.02  -0.11   0.12    -0.06  -0.10  -0.08     0.04  -0.10  -0.06
  18   1    -0.01  -0.03   0.04    -0.02  -0.04  -0.03     0.01  -0.03  -0.02
  19   1    -0.01  -0.03   0.04    -0.03  -0.02  -0.02    -0.00  -0.02  -0.02
  20   1     0.01  -0.06   0.03    -0.01  -0.04  -0.03     0.01  -0.04  -0.02
  21   1     0.00   0.01  -0.02     0.00   0.02   0.00     0.00  -0.04   0.05
  22   6    -0.12   0.07  -0.00    -0.03  -0.01  -0.03    -0.13   0.09   0.07
  23   8    -0.13   0.11  -0.05    -0.06  -0.04  -0.13    -0.09   0.20   0.23
  24   7    -0.10   0.05   0.02    -0.03   0.02   0.03    -0.13   0.02  -0.03
  25   1    -0.02   0.01  -0.00    -0.01   0.00  -0.00    -0.02   0.01   0.01
  26   1    -0.03   0.01   0.02     0.00   0.01   0.03    -0.05  -0.01  -0.03
  27   7    -0.16   0.08   0.03     0.01   0.01   0.03    -0.24   0.07   0.01
  28   1    -0.04   0.01   0.02     0.01   0.01   0.03    -0.07  -0.00  -0.03
  29   1    -0.05   0.03   0.00    -0.00  -0.00  -0.01    -0.07   0.03   0.02
  30   6     0.15   0.01  -0.03    -0.09  -0.03  -0.02     0.02   0.02  -0.03
  31   8     0.17  -0.08   0.08    -0.07   0.01  -0.14     0.10  -0.05  -0.10
  32   7     0.18  -0.15   0.01    -0.05  -0.01   0.07    -0.01   0.40  -0.15
  33   1     0.04  -0.04   0.01    -0.00   0.01   0.01     0.02   0.08  -0.02
  34   1     0.04   0.01  -0.04    -0.02  -0.01   0.04    -0.00   0.05   0.01
  35   7     0.15   0.27  -0.20    -0.17  -0.11   0.03    -0.02  -0.24   0.14
  36   1     0.05   0.07  -0.06    -0.05  -0.04   0.03    -0.03  -0.02   0.03
  37   1     0.04   0.07  -0.05    -0.06  -0.03  -0.01    -0.01  -0.10   0.04
  38   6    -0.08   0.01   0.03    -0.01   0.02   0.03    -0.10  -0.04  -0.02
  39   8    -0.10   0.03  -0.07     0.01   0.08   0.02    -0.14  -0.18   0.15
  40   7    -0.10   0.00   0.11     0.02  -0.02   0.06    -0.17   0.07  -0.10
  41   1    -0.03   0.01  -0.00     0.02  -0.00  -0.00    -0.07  -0.00   0.03
  42   1    -0.03   0.01   0.02     0.00  -0.01   0.00    -0.04   0.03  -0.02
  43   7    -0.08  -0.02   0.14    -0.05   0.00   0.07    -0.03   0.04  -0.21
  44   1    -0.02   0.00   0.03    -0.02  -0.01   0.00    -0.00   0.02  -0.03
  45   1    -0.02   0.00   0.00    -0.02   0.01   0.01     0.01  -0.02  -0.00
  46   6    -0.04  -0.11  -0.08     0.10   0.03   0.05     0.06   0.03  -0.02
  47   8     0.20  -0.34   0.01     0.01   0.03   0.05     0.08  -0.05   0.00
  48   7    -0.27   0.10  -0.22    -0.20   0.44  -0.04     0.08   0.06   0.01
  49   1    -0.05   0.01  -0.05    -0.07   0.13  -0.01     0.02   0.01   0.01
  50   1    -0.11   0.05  -0.07     0.04   0.04   0.01     0.01   0.04  -0.00
  51   7    -0.11  -0.06  -0.08     0.54  -0.37   0.18     0.03   0.09  -0.09
  52   1    -0.08   0.03  -0.05     0.09  -0.03   0.01     0.01   0.03  -0.03
  53   1     0.01  -0.05  -0.01     0.11  -0.08   0.02     0.01   0.01  -0.03
                     13                     14                     15
                        a                      a                      a 
 Frequencies --    60.7095                73.8320                77.8644
 Red. masses --    12.1836                12.8882                13.4961
 Frc consts  --     0.0000                 0.0000                 0.0000
 IR Inten    --     6.5702                 1.8340                 3.4960
 Raman Activ --     0.0000                 0.0000                 0.0000
 Depolar     --     0.0000                 0.0000                 0.0000
 Atom AN      X      Y      Z        X      Y      Z        X      Y      Z
   1   8    -0.01  -0.11   0.13    -0.10   0.07   0.14    -0.08   0.16   0.02
   2   6    -0.02   0.10   0.22    -0.15   0.06   0.20    -0.02   0.00  -0.10
   3   1     0.00   0.00   0.12    -0.06  -0.01   0.09    -0.03   0.01  -0.06
   4   1    -0.01   0.08   0.08    -0.06   0.05   0.06     0.01  -0.02  -0.03
   5   6    -0.05   0.19   0.02    -0.08   0.02   0.13     0.05  -0.07  -0.08
   6   1    -0.02   0.07  -0.04    -0.01   0.02   0.04     0.03  -0.02  -0.00
   7   1    -0.01   0.10   0.02    -0.02   0.00   0.03     0.02  -0.04  -0.03
   8   7    -0.07   0.03  -0.07    -0.11  -0.05   0.09     0.03  -0.09  -0.11
   9   6    -0.08  -0.14  -0.13    -0.12   0.01   0.11    -0.00  -0.18  -0.12
  10   1    -0.03  -0.05  -0.05    -0.03  -0.02   0.02    -0.01  -0.05  -0.04
  11   1    -0.01  -0.06  -0.01    -0.06   0.01   0.04     0.01  -0.07  -0.02
  12   1    -0.03  -0.04  -0.06    -0.02   0.02   0.04    -0.01  -0.06  -0.04
  13   6    -0.06   0.11  -0.24    -0.01  -0.10   0.04    -0.03  -0.01  -0.17
  14   1    -0.02   0.04  -0.11     0.02  -0.02   0.03    -0.02  -0.01  -0.07
  15   1    -0.02   0.07  -0.06     0.01  -0.04  -0.00    -0.01   0.02  -0.04
  16   1    -0.02  -0.01  -0.09    -0.01  -0.04  -0.00    -0.01  -0.01  -0.05
  17   6    -0.08  -0.04   0.09    -0.19  -0.09   0.03     0.09  -0.06  -0.03
  18   1    -0.03   0.01   0.05    -0.05  -0.04  -0.00     0.03   0.00  -0.00
  19   1    -0.02  -0.03   0.04    -0.07  -0.02   0.01     0.04  -0.04   0.00
  20   1    -0.01  -0.04   0.02    -0.06  -0.04  -0.01     0.02  -0.02  -0.01
  21   1    -0.01  -0.01  -0.02    -0.01   0.02   0.02    -0.00   0.04   0.04
  22   6     0.09  -0.02  -0.04     0.03  -0.05  -0.02    -0.08  -0.02  -0.01
  23   8     0.10  -0.02  -0.09     0.01  -0.12  -0.06    -0.14  -0.09  -0.07
  24   7     0.12  -0.03  -0.01     0.01  -0.01   0.02    -0.12   0.04   0.04
  25   1     0.03  -0.01  -0.01    -0.01  -0.01  -0.00    -0.05   0.01   0.00
  26   1     0.03  -0.01   0.00     0.01   0.01   0.01    -0.02   0.03   0.02
  27   7     0.09  -0.02  -0.02     0.10  -0.04  -0.00    -0.01  -0.00   0.03
  28   1     0.03  -0.01   0.00     0.03   0.00   0.01     0.00   0.01   0.02
  29   1     0.02  -0.01  -0.01     0.03  -0.02  -0.01    -0.00  -0.01  -0.01
  30   6    -0.01  -0.02  -0.03     0.19   0.03  -0.08     0.05  -0.15   0.01
  31   8     0.10  -0.21  -0.03     0.24   0.07  -0.19     0.20  -0.48   0.08
  32   7    -0.01   0.24  -0.08     0.22   0.11  -0.05     0.09  -0.08   0.09
  33   1     0.03   0.03   0.01     0.06   0.03  -0.02     0.04  -0.01   0.02
  34   1    -0.01   0.06   0.00     0.06   0.01   0.01    -0.01   0.09  -0.03
  35   7    -0.12  -0.05  -0.02     0.15  -0.08  -0.01    -0.16   0.10  -0.16
  36   1    -0.06   0.03  -0.01     0.03  -0.01   0.00    -0.07   0.06  -0.04
  37   1    -0.04  -0.05  -0.01     0.03  -0.02  -0.02    -0.05  -0.03  -0.04
  38   6     0.02  -0.04  -0.05     0.04   0.09   0.04     0.04   0.12   0.10
  39   8     0.01   0.03  -0.38     0.07   0.13   0.12     0.08   0.14   0.33
  40   7     0.02  -0.06   0.04     0.08   0.06  -0.00     0.09   0.10  -0.00
  41   1    -0.00   0.01  -0.07     0.03   0.01   0.01     0.04   0.02   0.04
  42   1     0.01  -0.02   0.03     0.02   0.01  -0.01     0.02   0.02  -0.02
  43   7     0.06  -0.15   0.32    -0.01   0.10  -0.01    -0.05   0.16  -0.08
  44   1     0.02  -0.03   0.07    -0.01   0.02  -0.01    -0.02   0.03  -0.03
  45   1     0.02  -0.02   0.01    -0.01   0.03   0.01    -0.02   0.04   0.03
  46   6    -0.01   0.04   0.09    -0.10  -0.04  -0.13     0.00   0.09   0.06
  47   8     0.06  -0.09   0.16    -0.40  -0.08  -0.17    -0.02   0.13   0.06
  48   7    -0.01   0.09   0.12     0.06   0.00   0.08     0.08   0.01   0.10
  49   1     0.01   0.01   0.05    -0.03   0.02   0.05     0.01   0.01   0.02
  50   1    -0.02   0.06   0.02     0.05   0.03   0.02    -0.00   0.02   0.02
  51   7    -0.11   0.17   0.01     0.04  -0.07  -0.31    -0.07   0.16   0.03
  52   1    -0.02   0.05   0.00     0.08  -0.03  -0.07     0.03  -0.00   0.03
  53   1    -0.00   0.01   0.01     0.00  -0.04  -0.11     0.02   0.01   0.02
                     16                     17                     18
                        a                      a                      a 
 Frequencies --    87.9677                98.9740               108.5879
 Red. masses --    12.7390                12.2377                12.3906
 Frc consts  --     0.0000                 0.0000                 0.0000
 IR Inten    --     5.5474                 5.8462                 8.2932
 Raman Activ --     0.0000                 0.0000                 0.0000
 Depolar     --     0.0000                 0.0000                 0.0000
 Atom AN      X      Y      Z        X      Y      Z        X      Y      Z
   1   8    -0.16  -0.04   0.10     0.10   0.01  -0.04     0.22   0.05  -0.12
   2   6    -0.04  -0.05  -0.03     0.01   0.14   0.10     0.09   0.06   0.02
   3   1    -0.01   0.01  -0.04     0.01   0.02   0.08     0.04   0.02   0.02
   4   1     0.01  -0.05  -0.01    -0.01   0.09   0.04    -0.00   0.01  -0.01
   5   6    -0.09  -0.02  -0.01     0.00   0.20  -0.01     0.02   0.08   0.12
   6   1    -0.04  -0.02   0.00    -0.00   0.06  -0.02    -0.01   0.01   0.03
   7   1    -0.02  -0.00  -0.01     0.01   0.08  -0.00    -0.01   0.02   0.04
   8   7    -0.12   0.05   0.00    -0.04   0.11  -0.09     0.07   0.14   0.20
   9   6    -0.10  -0.12  -0.07    -0.09   0.13  -0.04     0.12   0.08   0.13
  10   1    -0.03  -0.02  -0.02    -0.03   0.02  -0.03     0.04   0.03   0.05
  11   1     0.01  -0.06  -0.02    -0.06   0.05   0.00     0.05   0.01   0.03
  12   1    -0.06  -0.05  -0.05    -0.01   0.05   0.00     0.02   0.02   0.02
  13   6    -0.29   0.19  -0.03     0.10   0.05  -0.19    -0.04   0.18   0.25
  14   1    -0.12   0.04  -0.06     0.06   0.03  -0.04    -0.03   0.04   0.06
  15   1    -0.11   0.10   0.02     0.04   0.01  -0.07    -0.02   0.06   0.08
  16   1    -0.07   0.05   0.01     0.02  -0.01  -0.08     0.00   0.06   0.09
  17   6     0.05   0.13   0.11    -0.16  -0.00  -0.10     0.13   0.18   0.21
  18   1     0.03   0.09   0.05    -0.07  -0.02  -0.03     0.04   0.06   0.06
  19   1     0.04  -0.00   0.06    -0.07   0.02  -0.03     0.05   0.04   0.06
  20   1    -0.01   0.05   0.01    -0.03  -0.02  -0.02     0.03   0.06   0.06
  21   1    -0.03  -0.01   0.04    -0.01  -0.01   0.00     0.03   0.00  -0.02
  22   6     0.05  -0.03  -0.01     0.09  -0.04  -0.01    -0.02   0.01   0.01
  23   8     0.05  -0.06  -0.02     0.10  -0.06  -0.02    -0.01   0.02   0.01
  24   7     0.05  -0.02   0.00     0.10  -0.05  -0.01    -0.01   0.01   0.00
  25   1     0.01  -0.01  -0.00     0.03  -0.01  -0.01    -0.00   0.00   0.00
  26   1     0.01  -0.00  -0.00     0.03  -0.01  -0.01    -0.00   0.00  -0.00
  27   7     0.07  -0.03  -0.01     0.11  -0.05  -0.02    -0.03   0.01   0.00
  28   1     0.02  -0.00   0.00     0.03  -0.01  -0.00    -0.01   0.00  -0.00
  29   1     0.02  -0.01  -0.00     0.03  -0.02  -0.00    -0.01   0.00   0.00
  30   6    -0.01   0.06   0.01     0.02  -0.04  -0.13    -0.09  -0.16  -0.22
  31   8    -0.02   0.15  -0.09    -0.08   0.03  -0.03    -0.04  -0.23  -0.36
  32   7     0.01   0.02   0.07    -0.05  -0.10  -0.27    -0.05  -0.08  -0.15
  33   1     0.00   0.01   0.01    -0.03  -0.05  -0.06     0.02  -0.01  -0.04
  34   1     0.01  -0.01   0.04     0.00  -0.06  -0.08    -0.03  -0.01  -0.02
  35   7    -0.05   0.00   0.04     0.21  -0.06  -0.13    -0.26  -0.24  -0.21
  36   1    -0.01  -0.02   0.03     0.08  -0.02  -0.07    -0.09  -0.06  -0.02
  37   1    -0.02   0.01  -0.00     0.07   0.01  -0.01    -0.09  -0.09  -0.08
  38   6    -0.00   0.00   0.09    -0.03  -0.01   0.12     0.02  -0.00   0.01
  39   8     0.00  -0.06   0.31    -0.03  -0.12   0.41     0.02   0.00   0.03
  40   7    -0.01   0.04  -0.03    -0.05   0.05  -0.02     0.03  -0.02   0.00
  41   1     0.00  -0.00   0.04    -0.01  -0.01   0.05     0.01  -0.00  -0.00
  42   1    -0.00   0.01  -0.02    -0.01   0.02  -0.02     0.01  -0.01  -0.01
  43   7    -0.00   0.06  -0.10    -0.01   0.07  -0.13    -0.00  -0.00  -0.02
  44   1    -0.00   0.01  -0.03    -0.00   0.02  -0.03    -0.00  -0.00  -0.01
  45   1     0.00  -0.00   0.03     0.00  -0.01   0.05    -0.00   0.00   0.00
  46   6     0.17  -0.08  -0.07    -0.06  -0.06   0.15    -0.05  -0.03   0.01
  47   8     0.37  -0.40   0.04     0.06  -0.04   0.18    -0.10  -0.07   0.02
  48   7     0.01   0.16  -0.12    -0.16  -0.08   0.05    -0.02   0.01   0.07
  49   1     0.04  -0.00   0.01    -0.01  -0.04   0.00    -0.02   0.00   0.03
  50   1    -0.00   0.08  -0.04    -0.05  -0.05   0.02     0.01   0.01   0.02
  51   7     0.11   0.03  -0.19    -0.13  -0.07   0.26    -0.01  -0.02  -0.05
  52   1    -0.03   0.08  -0.09    -0.07  -0.00   0.05     0.01   0.00  -0.02
  53   1     0.04  -0.01  -0.06    -0.04  -0.01   0.07    -0.01  -0.02  -0.03
                     19                     20                     21
                        a                      a                      a 
 Frequencies --   112.1286               127.8553               132.9470
 Red. masses --    12.6732                12.2417                12.0445
 Frc consts  --     0.0000                 0.0000                 0.0000
 IR Inten    --    20.4364                 8.5951                 4.0502
 Raman Activ --     0.0000                 0.0000                 0.0000
 Depolar     --     0.0000                 0.0000                 0.0000
 Atom AN      X      Y      Z        X      Y      Z        X      Y      Z
   1   8     0.06  -0.15   0.16     0.02   0.20  -0.12    -0.08  -0.01   0.13
   2   6     0.11  -0.10   0.08    -0.01   0.08  -0.11    -0.01  -0.04   0.04
   3   1     0.03  -0.02   0.02    -0.01   0.02  -0.04    -0.01  -0.00  -0.01
   4   1     0.05  -0.04   0.03    -0.01   0.02  -0.04     0.01  -0.02   0.01
   5   6     0.09  -0.07   0.03     0.05   0.02  -0.07    -0.02  -0.04   0.02
   6   1     0.02  -0.02   0.01     0.03   0.01  -0.02    -0.00  -0.02   0.04
   7   1     0.04  -0.01   0.00     0.00  -0.00  -0.02     0.02  -0.02  -0.02
   8   7     0.03  -0.06  -0.01     0.09  -0.05  -0.06    -0.13   0.07  -0.02
   9   6    -0.04  -0.19  -0.03     0.10  -0.20  -0.14    -0.18   0.21   0.07
  10   1    -0.03  -0.04  -0.01     0.03  -0.06  -0.04    -0.06   0.06   0.02
  11   1     0.02  -0.08   0.00     0.06  -0.08  -0.03    -0.08   0.08   0.01
  12   1    -0.03  -0.07  -0.01     0.01  -0.07  -0.07    -0.03   0.07   0.05
  13   6    -0.07   0.06  -0.11    -0.00   0.06  -0.16    -0.07   0.00   0.04
  14   1    -0.04   0.01  -0.06    -0.02   0.02  -0.09    -0.01  -0.00   0.05
  15   1    -0.01   0.06  -0.02    -0.01   0.06  -0.02    -0.00  -0.03  -0.01
  16   1    -0.03   0.01  -0.04     0.01  -0.00  -0.05    -0.03   0.02   0.01
  17   6     0.12  -0.00   0.05     0.16  -0.06   0.13    -0.18   0.10  -0.20
  18   1     0.06   0.03   0.02     0.05   0.03   0.06    -0.04  -0.01  -0.08
  19   1     0.05  -0.03   0.04     0.06  -0.05   0.07    -0.06   0.05  -0.08
  20   1     0.01   0.00  -0.00     0.04  -0.04   0.02    -0.06   0.05  -0.05
  21   1     0.03  -0.03   0.02     0.02   0.05  -0.01     0.02   0.01   0.02
  22   6    -0.19  -0.01  -0.00     0.03   0.09   0.03    -0.08   0.11   0.03
  23   8    -0.28  -0.11  -0.08     0.09   0.21   0.11    -0.06   0.21   0.09
  24   7    -0.27   0.10   0.06     0.09  -0.02  -0.04    -0.06   0.04  -0.02
  25   1    -0.10   0.02   0.01     0.05   0.00   0.00     0.00   0.02   0.01
  26   1    -0.05   0.06   0.04     0.01  -0.03  -0.02    -0.02  -0.00  -0.00
  27   7    -0.10   0.03   0.06    -0.11   0.06  -0.01    -0.22   0.10   0.02
  28   1    -0.02   0.02   0.01    -0.04  -0.01  -0.01    -0.07  -0.00  -0.01
  29   1    -0.03  -0.01  -0.01    -0.04   0.04   0.02    -0.07   0.05   0.01
  30   6    -0.03   0.04  -0.10     0.00   0.09   0.02     0.06  -0.04  -0.03
  31   8    -0.17   0.26  -0.07    -0.04   0.23  -0.04     0.11  -0.10  -0.06
  32   7    -0.09  -0.09  -0.20     0.02   0.01   0.06     0.08   0.02   0.00
  33   1    -0.04  -0.04  -0.04    -0.00   0.03  -0.00     0.03  -0.00   0.01
  34   1     0.01  -0.09  -0.04     0.01  -0.01   0.02     0.02   0.01   0.01
  35   7     0.20  -0.05  -0.04     0.05   0.03   0.07    -0.02  -0.02  -0.05
  36   1     0.08  -0.04  -0.04     0.03  -0.02   0.03    -0.02   0.01  -0.01
  37   1     0.07   0.04  -0.00     0.02   0.03   0.01    -0.01  -0.02  -0.02
  38   6     0.19   0.12  -0.02     0.00  -0.11   0.01     0.18  -0.09  -0.03
  39   8     0.20   0.14  -0.12     0.08   0.05   0.12     0.29   0.11   0.01
  40   7     0.19   0.14   0.04     0.13  -0.28  -0.08     0.34  -0.30  -0.10
  41   1     0.04   0.04  -0.01     0.08  -0.07  -0.01     0.14  -0.08  -0.02
  42   1     0.05   0.04   0.02     0.02  -0.11  -0.04     0.07  -0.12  -0.04
  43   7     0.20   0.11   0.07    -0.20  -0.15  -0.07    -0.06  -0.17  -0.03
  44   1     0.05   0.03   0.02    -0.07  -0.07  -0.03    -0.03  -0.09  -0.03
  45   1     0.05   0.04  -0.01    -0.08  -0.02   0.01    -0.05  -0.01  -0.01
  46   6    -0.05  -0.03   0.05    -0.15  -0.06   0.08     0.04  -0.03   0.03
  47   8    -0.04  -0.03   0.06    -0.31  -0.12   0.10     0.19  -0.05   0.05
  48   7    -0.06  -0.03   0.05    -0.08   0.02   0.23    -0.05  -0.04  -0.08
  49   1    -0.00  -0.02   0.02    -0.04   0.00   0.10     0.01  -0.02  -0.03
  50   1    -0.00  -0.02   0.02     0.02   0.02   0.06    -0.04  -0.02  -0.02
  51   7    -0.04  -0.05   0.08    -0.06  -0.07  -0.04    -0.03  -0.01   0.10
  52   1    -0.03   0.01   0.01     0.00   0.00  -0.02    -0.03   0.00   0.02
  53   1    -0.03   0.01   0.01    -0.04  -0.02  -0.03     0.01  -0.01   0.04
                     22                     23                     24
                        a                      a                      a 
 Frequencies --   136.1364               143.1153               160.6265
 Red. masses --    12.3688                12.5250                11.9627
 Frc consts  --     0.0000                 0.0000                 0.0000
 IR Inten    --     7.8094                30.1324                11.0370
 Raman Activ --     0.0000                 0.0000                 0.0000
 Depolar     --     0.0000                 0.0000                 0.0000
 Atom AN      X      Y      Z        X      Y      Z        X      Y      Z
   1   8    -0.00   0.02   0.05    -0.11   0.08   0.11    -0.05   0.06   0.30
   2   6    -0.09   0.09   0.18    -0.14   0.03   0.12     0.14  -0.11  -0.02
   3   1    -0.03  -0.00   0.10    -0.06  -0.01   0.05     0.02   0.00  -0.09
   4   1    -0.05   0.07   0.06    -0.05   0.03   0.04     0.10  -0.10  -0.00
   5   6    -0.05   0.08   0.10    -0.04  -0.04   0.08     0.19  -0.18   0.04
   6   1    -0.00   0.04   0.01     0.01   0.00   0.01     0.07  -0.06   0.07
   7   1    -0.02   0.04   0.04    -0.02  -0.02   0.02     0.09  -0.09  -0.03
   8   7    -0.01  -0.04   0.08    -0.00  -0.12   0.07     0.06  -0.02  -0.01
   9   6     0.02  -0.11   0.03     0.05  -0.23  -0.01    -0.12   0.00   0.11
  10   1     0.01  -0.06  -0.00     0.02  -0.06   0.01    -0.07   0.04   0.02
  11   1    -0.00  -0.04   0.03     0.04  -0.08  -0.00    -0.03  -0.00   0.03
  12   1     0.01  -0.01  -0.01    -0.00  -0.07  -0.03    -0.05  -0.03   0.07
  13   6     0.01  -0.02   0.00    -0.07  -0.04   0.02     0.02   0.01  -0.01
  14   1     0.01   0.00  -0.02    -0.03  -0.01  -0.03    -0.00  -0.01   0.02
  15   1     0.00   0.01   0.01    -0.03   0.02   0.03     0.03   0.00  -0.02
  16   1     0.00  -0.02  -0.01    -0.01  -0.02   0.01    -0.02   0.03  -0.01
  17   6    -0.04  -0.08   0.15     0.07  -0.09   0.16     0.11   0.09  -0.17
  18   1    -0.01  -0.01   0.05     0.04   0.01   0.05     0.08   0.03  -0.08
  19   1    -0.02  -0.03   0.06     0.03  -0.06   0.07     0.03   0.01  -0.03
  20   1    -0.01  -0.04   0.03     0.01  -0.03   0.03    -0.01   0.06  -0.08
  21   1     0.00   0.01  -0.00    -0.02   0.03   0.02     0.01   0.02   0.09
  22   6     0.01   0.04   0.01     0.05   0.01   0.00     0.10   0.00  -0.00
  23   8     0.04   0.09   0.05     0.07   0.04   0.03     0.14   0.04   0.04
  24   7     0.04  -0.01  -0.02     0.07  -0.03  -0.02     0.15  -0.06  -0.03
  25   1     0.02   0.00   0.00     0.03  -0.01  -0.00     0.05  -0.01  -0.01
  26   1     0.00  -0.01  -0.01     0.01  -0.02  -0.01     0.03  -0.03  -0.03
  27   7    -0.05   0.03  -0.00     0.02  -0.00  -0.02     0.08  -0.02  -0.04
  28   1    -0.02  -0.01  -0.01     0.00  -0.00  -0.00     0.02  -0.01   0.00
  29   1    -0.02   0.02   0.01     0.00   0.01   0.01     0.02   0.00   0.01
  30   6    -0.12  -0.10   0.01     0.05   0.04  -0.13    -0.00  -0.05  -0.07
  31   8    -0.26  -0.15   0.30     0.07   0.17  -0.32    -0.05  -0.05   0.01
  32   7    -0.28  -0.17  -0.26     0.13   0.02   0.01    -0.04  -0.09  -0.13
  33   1    -0.11  -0.07  -0.06     0.04   0.02  -0.01    -0.03  -0.03  -0.04
  34   1    -0.06  -0.03  -0.13     0.03  -0.03   0.04    -0.01  -0.02  -0.05
  35   7     0.14   0.02  -0.07    -0.03  -0.09  -0.05     0.09  -0.03  -0.09
  36   1     0.06   0.00  -0.08    -0.01  -0.03   0.01     0.04  -0.01  -0.04
  37   1     0.07   0.01   0.04    -0.02   0.00  -0.05     0.04   0.00  -0.00
  38   6     0.02  -0.03   0.02    -0.07   0.02   0.01    -0.19   0.15  -0.03
  39   8     0.07   0.06   0.10    -0.05   0.09   0.02    -0.18   0.34  -0.15
  40   7     0.10  -0.13  -0.05    -0.03  -0.04  -0.01    -0.11   0.00   0.02
  41   1     0.05  -0.04   0.00     0.01  -0.01  -0.01     0.00   0.02  -0.04
  42   1     0.02  -0.06  -0.02    -0.01  -0.02  -0.01    -0.04  -0.03   0.01
  43   7    -0.11  -0.06  -0.03    -0.15  -0.00   0.01    -0.37   0.08   0.10
  44   1    -0.04  -0.04  -0.02    -0.04  -0.01  -0.00    -0.11  -0.01   0.02
  45   1    -0.05  -0.00   0.01    -0.05   0.01   0.00    -0.12   0.05  -0.01
  46   6     0.13   0.13  -0.15     0.03   0.08  -0.02    -0.00  -0.04   0.03
  47   8     0.05   0.14  -0.19     0.21   0.38  -0.10     0.01  -0.13   0.07
  48   7     0.20   0.11  -0.11    -0.04  -0.20  -0.29    -0.01   0.03   0.07
  49   1     0.03   0.04  -0.03     0.01  -0.03  -0.16     0.01  -0.01   0.04
  50   1     0.05   0.04  -0.03    -0.07  -0.11  -0.07     0.01   0.02   0.02
  51   7     0.16   0.12  -0.19    -0.06   0.00   0.29    -0.00  -0.02  -0.02
  52   1     0.06   0.01  -0.04    -0.05  -0.04   0.09    -0.01   0.02  -0.02
  53   1     0.05   0.04  -0.04    -0.02   0.04   0.10    -0.00  -0.01  -0.01
                     25                     26                     27
                        a                      a                      a 
 Frequencies --   197.6039               215.5333               217.3133
 Red. masses --    10.7106                 3.0834                 2.8292
 Frc consts  --     0.0000                 0.0000                 0.0000
 IR Inten    --    12.5346                39.2410                96.7085
 Raman Activ --     0.0000                 0.0000                 0.0000
 Depolar     --     0.0000                 0.0000                 0.0000
 Atom AN      X      Y      Z        X      Y      Z        X      Y      Z
   1   8     0.45   0.24  -0.38    -0.01   0.07  -0.01     0.03   0.04  -0.03
   2   6    -0.08   0.03   0.12    -0.04   0.04   0.02     0.00   0.02  -0.01
   3   1    -0.05  -0.06   0.13    -0.02  -0.00   0.02    -0.00   0.00  -0.00
   4   1    -0.14   0.11   0.02    -0.02   0.02   0.01    -0.00   0.01  -0.00
   5   6     0.15  -0.19   0.19     0.03  -0.02   0.02     0.03  -0.01   0.01
   6   1     0.09  -0.05   0.15     0.02  -0.00   0.03     0.01  -0.00   0.02
   7   1     0.09  -0.13  -0.01     0.01  -0.03  -0.00     0.01  -0.02  -0.00
   8   7    -0.09  -0.08   0.04     0.01  -0.01   0.01     0.00   0.00  -0.00
   9   6    -0.27  -0.12   0.13    -0.01  -0.02   0.02    -0.04  -0.01   0.02
  10   1    -0.12   0.05   0.05    -0.01   0.01   0.01    -0.02   0.02   0.01
  11   1    -0.01  -0.05   0.00     0.00  -0.01   0.00     0.01  -0.01  -0.01
  12   1    -0.13  -0.10   0.07    -0.01  -0.01   0.01    -0.03  -0.02   0.01
  13   6    -0.14   0.03  -0.10    -0.00   0.00   0.00     0.00   0.01  -0.02
  14   1    -0.05   0.01  -0.06    -0.00  -0.00  -0.00     0.00   0.00  -0.01
  15   1    -0.04   0.05  -0.01     0.00   0.00   0.00    -0.00   0.01  -0.00
  16   1    -0.04  -0.01  -0.04    -0.00  -0.00  -0.00     0.00  -0.00  -0.00
  17   6    -0.05   0.02  -0.12     0.02   0.02  -0.02     0.00   0.00  -0.02
  18   1     0.11   0.08  -0.07     0.04   0.03  -0.01     0.01   0.00  -0.01
  19   1    -0.03  -0.05   0.06     0.00  -0.02   0.03    -0.00  -0.00   0.00
  20   1    -0.11   0.02  -0.14    -0.03   0.01  -0.04    -0.00   0.00  -0.01
  21   1     0.06   0.04  -0.06     0.01   0.02  -0.01     0.01   0.01  -0.01
  22   6    -0.00  -0.00   0.00    -0.00  -0.00   0.00     0.00  -0.00   0.00
  23   8    -0.01  -0.01  -0.00    -0.00  -0.01   0.00     0.00  -0.00   0.00
  24   7    -0.01   0.00   0.00    -0.00   0.01   0.02     0.00   0.01   0.02
  25   1    -0.00   0.00   0.00    -0.01  -0.01  -0.02    -0.01  -0.01  -0.02
  26   1    -0.00   0.00   0.00    -0.01  -0.00  -0.03    -0.01  -0.00  -0.03
  27   7     0.00  -0.00   0.00    -0.01  -0.01  -0.02    -0.01  -0.01  -0.02
  28   1     0.00   0.00  -0.00     0.00   0.01   0.03     0.00   0.01   0.03
  29   1     0.00  -0.00  -0.00     0.00   0.01   0.03     0.01   0.01   0.03
  30   6    -0.01   0.03   0.05     0.01  -0.01  -0.00    -0.01   0.02  -0.01
  31   8     0.00   0.02   0.06     0.02  -0.03   0.01    -0.03   0.04  -0.02
  32   7    -0.00   0.03   0.06     0.01  -0.01   0.01    -0.01  -0.02   0.00
  33   1     0.01   0.03   0.00    -0.00   0.03  -0.02    -0.01   0.01  -0.01
  34   1    -0.01   0.04  -0.00    -0.01   0.06  -0.04    -0.01   0.02  -0.02
  35   7    -0.02   0.04   0.04     0.00   0.01  -0.02     0.00  -0.01   0.01
  36   1    -0.00  -0.01   0.03     0.02  -0.04   0.03     0.00  -0.01   0.00
  37   1    -0.00  -0.01   0.03     0.01  -0.04   0.03    -0.00   0.00  -0.00
  38   6    -0.01  -0.01  -0.02    -0.00  -0.02   0.00    -0.00  -0.01   0.01
  39   8    -0.02  -0.03  -0.05    -0.01  -0.05   0.01    -0.00  -0.02   0.02
  40   7    -0.03  -0.00   0.06    -0.03   0.08  -0.23    -0.02   0.07  -0.20
  41   1    -0.02   0.03  -0.09     0.00  -0.13   0.42     0.01  -0.11   0.37
  42   1    -0.01   0.02  -0.02    -0.00  -0.04   0.15    -0.00  -0.04   0.13
  43   7     0.03   0.00  -0.04     0.04  -0.08   0.20     0.01  -0.06   0.18
  44   1     0.01  -0.00   0.03     0.01   0.05  -0.16    -0.00   0.04  -0.13
  45   1     0.02  -0.03   0.06     0.01   0.11  -0.42    -0.00   0.10  -0.36
  46   6     0.03  -0.00  -0.00     0.01  -0.01  -0.01    -0.01   0.01   0.02
  47   8     0.07  -0.02   0.01    -0.01   0.02  -0.02     0.02  -0.04   0.03
  48   7     0.02  -0.00  -0.03    -0.13   0.11  -0.03     0.15  -0.13   0.04
  49   1     0.01  -0.00  -0.01     0.22  -0.19   0.08    -0.26   0.22  -0.09
  50   1    -0.01   0.01  -0.01     0.35  -0.34   0.11    -0.41   0.40  -0.12
  51   7     0.01   0.01   0.01    -0.00   0.01  -0.00     0.00  -0.01   0.00
  52   1    -0.01   0.01  -0.00    -0.14   0.12  -0.07     0.16  -0.14   0.08
  53   1     0.00   0.00   0.01    -0.06   0.06  -0.03     0.07  -0.07   0.03
                     28                     29                     30
                        a                      a                      a 
 Frequencies --   240.3564               250.3873               267.1500
 Red. masses --     9.9175                 3.6229                 4.9387
 Frc consts  --     0.0000                 0.0000                 0.0000
 IR Inten    --    12.9351                16.9314                 6.5644
 Raman Activ --     0.0000                 0.0000                 0.0000
 Depolar     --     0.0000                 0.0000                 0.0000
 Atom AN      X      Y      Z        X      Y      Z        X      Y      Z
   1   8     0.40  -0.25  -0.23     0.04  -0.01  -0.02     0.06  -0.26  -0.06
   2   6     0.23  -0.20  -0.03     0.02  -0.02  -0.01    -0.05  -0.05   0.15
   3   1     0.12  -0.03   0.00     0.01  -0.00  -0.00    -0.03  -0.07   0.13
   4   1     0.03  -0.09  -0.04     0.00  -0.01  -0.01    -0.04   0.09   0.07
   5   6    -0.10   0.02   0.02    -0.01  -0.00   0.01    -0.04   0.01  -0.12
   6   1    -0.10  -0.01  -0.06    -0.01  -0.00  -0.00    -0.01   0.01  -0.06
   7   1    -0.04   0.09   0.05    -0.00   0.01   0.00    -0.01   0.03  -0.02
   8   7    -0.12  -0.04   0.00    -0.01  -0.00   0.00     0.00  -0.01  -0.11
   9   6    -0.02  -0.05  -0.06    -0.01  -0.01  -0.00     0.17   0.13  -0.16
  10   1     0.03  -0.10  -0.04     0.00  -0.02  -0.01     0.05   0.21   0.08
  11   1    -0.07  -0.00   0.02    -0.01  -0.00   0.01     0.21   0.03  -0.18
  12   1     0.05   0.05  -0.05     0.01   0.01  -0.00    -0.08  -0.10  -0.04
  13   6    -0.14  -0.01  -0.01    -0.01   0.00  -0.01    -0.04  -0.09   0.15
  14   1    -0.05  -0.04   0.06    -0.01  -0.01   0.01    -0.01   0.05  -0.18
  15   1     0.02  -0.02  -0.05     0.01  -0.00  -0.01    -0.23   0.01   0.20
  16   1    -0.09   0.05  -0.03    -0.02   0.01  -0.01     0.18  -0.15   0.16
  17   6    -0.16  -0.12   0.09    -0.02  -0.01   0.01     0.02   0.03  -0.13
  18   1    -0.22  -0.17   0.06    -0.03  -0.02   0.01     0.18   0.15  -0.06
  19   1    -0.02   0.07  -0.14    -0.00   0.01  -0.02    -0.03  -0.10   0.14
  20   1     0.09  -0.03   0.18     0.01  -0.00   0.02    -0.13  -0.01  -0.21
  21   1     0.06  -0.08  -0.06     0.01  -0.00  -0.01    -0.00  -0.06  -0.05
  22   6     0.02   0.01   0.00     0.03  -0.01  -0.00     0.01   0.00   0.00
  23   8     0.02   0.01   0.02     0.03  -0.00   0.00     0.01   0.01   0.00
  24   7     0.05  -0.01   0.02    -0.09  -0.08  -0.29     0.01  -0.01  -0.01
  25   1     0.00  -0.01  -0.04     0.12   0.10   0.32     0.01   0.00   0.01
  26   1    -0.02  -0.02  -0.06     0.20   0.11   0.48     0.01  -0.00   0.01
  27   7     0.00  -0.01  -0.04     0.07   0.09   0.28     0.01   0.00   0.00
  28   1     0.01   0.02   0.05    -0.08  -0.16  -0.48    -0.00  -0.00  -0.01
  29   1     0.01   0.02   0.04    -0.08  -0.11  -0.31    -0.00  -0.00  -0.01
  30   6     0.00   0.03   0.04     0.00   0.00   0.00    -0.01  -0.02   0.02
  31   8     0.02   0.03   0.01     0.00   0.00  -0.00     0.00  -0.03   0.03
  32   7     0.01   0.07   0.04     0.00   0.00   0.00    -0.01   0.05  -0.01
  33   1     0.02  -0.02   0.04     0.00  -0.00   0.00     0.02  -0.06   0.05
  34   1     0.02  -0.06   0.06     0.00  -0.00   0.00     0.03  -0.15   0.11
  35   7    -0.03  -0.01   0.08    -0.00  -0.00   0.01     0.01  -0.04   0.07
  36   1    -0.04   0.08  -0.04    -0.01   0.01  -0.01    -0.07   0.17  -0.14
  37   1    -0.03   0.05  -0.04    -0.00   0.01  -0.01    -0.03   0.11  -0.10
  38   6    -0.02   0.15   0.05    -0.02   0.02   0.01     0.00   0.07   0.04
  39   8     0.00   0.24   0.08    -0.03   0.03   0.01     0.01   0.10   0.07
  40   7     0.07   0.04  -0.03    -0.01   0.00  -0.03     0.05   0.02  -0.01
  41   1     0.05  -0.01   0.06     0.01  -0.02   0.06     0.03  -0.00   0.03
  42   1     0.01  -0.03   0.01    -0.01  -0.02   0.01     0.01  -0.02   0.00
  43   7    -0.24   0.10   0.07    -0.03   0.01   0.04    -0.13   0.06   0.03
  44   1    -0.08  -0.01  -0.04    -0.01   0.02  -0.02    -0.04  -0.01  -0.02
  45   1    -0.10   0.09  -0.05    -0.01   0.02  -0.06    -0.06   0.04  -0.01
  46   6     0.01   0.01  -0.01     0.00   0.00  -0.00    -0.02  -0.00   0.01
  47   8     0.01   0.03  -0.02     0.00   0.00  -0.00    -0.03   0.00   0.00
  48   7    -0.02   0.01  -0.05    -0.00  -0.00  -0.01    -0.01   0.01   0.04
  49   1     0.03  -0.02  -0.01     0.00   0.00  -0.00    -0.00  -0.00   0.02
  50   1     0.04  -0.05   0.00    -0.00  -0.00  -0.00     0.02  -0.00   0.01
  51   7     0.00   0.01  -0.01     0.00   0.00  -0.00    -0.02  -0.00  -0.01
  52   1    -0.00   0.00  -0.00     0.00  -0.00   0.00     0.01  -0.01   0.01
  53   1    -0.00   0.01  -0.00     0.00  -0.00   0.00     0.00  -0.01  -0.00
                     31                     32                     33
                        a                      a                      a 
 Frequencies --   271.4001               292.2575               309.7552
 Red. masses --     3.2686                 6.2605                 4.9733
 Frc consts  --     0.0000                 0.0000                 0.0000
 IR Inten    --    33.0202                 0.7081                 1.2125
 Raman Activ --     0.0000                 0.0000                 0.0000
 Depolar     --     0.0000                 0.0000                 0.0000
 Atom AN      X      Y      Z        X      Y      Z        X      Y      Z
   1   8    -0.08   0.19   0.00     0.05  -0.00   0.03    -0.09  -0.26  -0.19
   2   6    -0.07   0.09  -0.04    -0.18   0.05   0.29    -0.06  -0.00  -0.05
   3   1    -0.03   0.03  -0.03    -0.11  -0.09   0.21     0.01  -0.01   0.03
   4   1    -0.02   0.02  -0.01    -0.11   0.18   0.13    -0.03   0.02  -0.01
   5   6     0.05  -0.03   0.03     0.06  -0.06  -0.09    -0.14   0.10  -0.05
   6   1     0.04  -0.00   0.04     0.05   0.00  -0.02    -0.07   0.03  -0.08
   7   1     0.02  -0.05  -0.01     0.04  -0.01  -0.04    -0.08   0.07   0.03
   8   7     0.03  -0.00   0.03     0.03  -0.06  -0.15     0.01   0.03   0.04
   9   6    -0.05  -0.05   0.06     0.19  -0.03  -0.23    -0.13  -0.08   0.09
  10   1    -0.02  -0.07  -0.03     0.11  -0.13  -0.09    -0.09   0.03   0.01
  11   1    -0.07  -0.01   0.07    -0.04   0.01  -0.01     0.02  -0.05   0.03
  12   1     0.03   0.03   0.02     0.13   0.09  -0.11    -0.08  -0.07   0.04
  13   6     0.01   0.03  -0.02    -0.23  -0.03   0.21     0.22  -0.09  -0.04
  14   1    -0.00  -0.03   0.08    -0.13  -0.14   0.30     0.10  -0.11   0.33
  15   1     0.09  -0.01  -0.07     0.08  -0.10  -0.07     0.33  -0.16  -0.24
  16   1    -0.07   0.07  -0.04    -0.19   0.22   0.05    -0.17   0.15  -0.14
  17   6     0.06   0.03  -0.00     0.19   0.11  -0.24     0.13   0.13   0.08
  18   1    -0.02  -0.04   0.00    -0.01  -0.05  -0.08     0.24   0.23   0.01
  19   1     0.03   0.04  -0.06     0.08   0.08  -0.17     0.04  -0.11   0.23
  20   1     0.05   0.03   0.05     0.10   0.10   0.02    -0.13   0.03  -0.16
  21   1    -0.01   0.05   0.00     0.01   0.01  -0.03    -0.04  -0.07  -0.07
  22   6    -0.00  -0.00   0.00     0.00  -0.00  -0.00     0.00   0.00  -0.00
  23   8    -0.00  -0.00   0.00     0.00   0.00  -0.00     0.00   0.00   0.00
  24   7    -0.01   0.01   0.01     0.00  -0.00   0.00     0.01  -0.00  -0.00
  25   1    -0.01  -0.00  -0.00     0.00  -0.00  -0.00     0.00  -0.00  -0.00
  26   1    -0.00   0.00  -0.01     0.00  -0.00  -0.00     0.00  -0.00  -0.00
  27   7    -0.00  -0.00  -0.01     0.00  -0.00  -0.00     0.00   0.00   0.00
  28   1     0.00   0.00   0.01     0.00   0.00  -0.00    -0.00  -0.00  -0.00
  29   1     0.00   0.00   0.01     0.00  -0.00  -0.00    -0.00   0.00  -0.00
  30   6    -0.00  -0.03  -0.00    -0.01   0.00   0.01     0.01   0.01   0.02
  31   8     0.00  -0.04   0.00    -0.02   0.01   0.02     0.02   0.01   0.00
  32   7    -0.04   0.06  -0.07    -0.01   0.00  -0.00     0.01   0.02   0.01
  33   1     0.02  -0.13   0.08     0.00  -0.00   0.00     0.00  -0.01   0.01
  34   1     0.08  -0.37   0.23    -0.01   0.03  -0.02     0.01  -0.02   0.02
  35   7     0.07  -0.15   0.16     0.01   0.03  -0.02    -0.05   0.01   0.01
  36   1    -0.17   0.44  -0.38     0.03  -0.06   0.05    -0.02  -0.01   0.03
  37   1    -0.07   0.29  -0.26     0.02  -0.03   0.04    -0.02  -0.01  -0.00
  38   6    -0.00  -0.05  -0.02    -0.01  -0.00   0.01     0.02   0.06   0.03
  39   8    -0.01  -0.07  -0.02    -0.01  -0.00   0.02     0.02   0.06   0.04
  40   7    -0.04  -0.00  -0.01    -0.01   0.01   0.00     0.06   0.01  -0.00
  41   1    -0.02  -0.01   0.02    -0.01   0.00   0.00     0.03   0.00   0.00
  42   1    -0.01   0.01   0.01    -0.00   0.00  -0.00     0.01  -0.01  -0.01
  43   7     0.08  -0.04   0.00    -0.01   0.01  -0.00    -0.08   0.04   0.01
  44   1     0.03   0.01  -0.02    -0.00  -0.00   0.00    -0.03  -0.01  -0.00
  45   1     0.04  -0.01  -0.05    -0.00  -0.00   0.01    -0.04   0.03   0.01
  46   6     0.02  -0.01   0.00    -0.02  -0.03   0.02     0.01  -0.00  -0.00
  47   8     0.02  -0.02   0.00    -0.01  -0.04   0.03     0.02  -0.01   0.01
  48   7    -0.02   0.04  -0.01    -0.01   0.01   0.05     0.01  -0.00   0.00
  49   1     0.02  -0.01   0.01    -0.02   0.01   0.03     0.00   0.00   0.00
  50   1     0.04  -0.03   0.01    -0.02   0.04   0.00    -0.01   0.02  -0.00
  51   7    -0.02   0.02  -0.02    -0.02  -0.02  -0.00     0.00   0.00   0.01
  52   1     0.05  -0.04   0.02    -0.00   0.00  -0.00    -0.01   0.01  -0.00
  53   1     0.01  -0.01   0.00    -0.00  -0.01  -0.00     0.00   0.00   0.00
                     34                     35                     36
                        a                      a                      a 
 Frequencies --   341.1993               351.8904               356.1001
 Red. masses --     1.9418                 3.7988                 5.4381
 Frc consts  --     0.0000                 0.0000                 0.0000
 IR Inten    --     1.3209               348.1957                47.7335
 Raman Activ --     0.0000                 0.0000                 0.0000
 Depolar     --     0.0000                 0.0000                 0.0000
 Atom AN      X      Y      Z        X      Y      Z        X      Y      Z
   1   8     0.02   0.10   0.07    -0.01  -0.02  -0.01    -0.15  -0.20  -0.16
   2   6     0.04   0.09   0.02    -0.01   0.00   0.00    -0.17   0.05   0.03
   3   1     0.02   0.04  -0.01    -0.01  -0.00   0.01    -0.06  -0.03   0.09
   4   1     0.03   0.01   0.00    -0.01   0.01   0.00    -0.08   0.10   0.03
   5   6     0.01   0.10  -0.01     0.01  -0.01  -0.00     0.02  -0.04  -0.04
   6   1     0.00   0.03  -0.01     0.01  -0.00   0.00     0.04   0.01   0.01
   7   1     0.00   0.04   0.00     0.00  -0.01  -0.00    -0.01  -0.06  -0.01
   8   7    -0.01   0.00  -0.05     0.01  -0.00   0.00     0.12  -0.02   0.02
   9   6    -0.08  -0.06  -0.06    -0.01   0.00   0.02    -0.11   0.01   0.18
  10   1    -0.11   0.40   0.18    -0.01   0.00   0.00    -0.09   0.08   0.05
  11   1     0.38  -0.09  -0.27    -0.01   0.00   0.01    -0.01   0.00   0.03
  12   1    -0.34  -0.37   0.03    -0.00   0.00   0.01    -0.06  -0.05   0.12
  13   6    -0.00  -0.07   0.08     0.01   0.01  -0.01     0.10   0.06  -0.09
  14   1    -0.01  -0.07   0.16     0.00   0.01  -0.01     0.03   0.06  -0.14
  15   1     0.08  -0.09  -0.05    -0.00   0.01   0.00    -0.03   0.08   0.04
  16   1    -0.07   0.08   0.01     0.01  -0.01  -0.00     0.08  -0.06  -0.02
  17   6    -0.01  -0.04   0.02     0.02   0.00  -0.00     0.20   0.05  -0.01
  18   1    -0.18  -0.15   0.04    -0.01  -0.01   0.00    -0.11  -0.14   0.02
  19   1     0.04   0.09  -0.17     0.01   0.01  -0.02     0.10   0.12  -0.20
  20   1     0.13   0.02   0.17     0.01   0.01   0.01     0.19   0.06   0.17
  21   1    -0.01   0.01   0.03     0.00  -0.00  -0.02    -0.05  -0.05  -0.08
  22   6    -0.00  -0.00  -0.00    -0.03  -0.02  -0.11     0.00   0.00   0.00
  23   8    -0.00  -0.00  -0.00    -0.02  -0.03  -0.06     0.00   0.00   0.00
  24   7    -0.01   0.00  -0.00     0.15   0.06   0.26     0.00  -0.00  -0.01
  25   1    -0.00   0.00   0.00    -0.08  -0.08  -0.22     0.00   0.00   0.00
  26   1    -0.00   0.00   0.00    -0.19  -0.10  -0.50     0.00  -0.00   0.01
  27   7    -0.00  -0.00   0.00     0.02   0.12   0.29     0.00   0.00  -0.00
  28   1    -0.00  -0.00   0.00    -0.09  -0.14  -0.53     0.00   0.00   0.00
  29   1    -0.00   0.00   0.00    -0.06  -0.09  -0.24     0.00   0.00   0.00
  30   6    -0.03  -0.00  -0.02    -0.00   0.01  -0.00     0.02  -0.07   0.06
  31   8    -0.03   0.00  -0.01     0.00   0.00  -0.00     0.02  -0.05   0.03
  32   7     0.01  -0.03   0.03     0.00  -0.01   0.00    -0.01   0.13  -0.05
  33   1     0.01   0.03  -0.02    -0.00   0.00  -0.00     0.02  -0.06   0.05
  34   1    -0.03   0.08  -0.04    -0.00   0.02  -0.01     0.08  -0.30   0.20
  35   7     0.05  -0.02   0.00     0.00  -0.01   0.01    -0.06   0.12  -0.10
  36   1     0.01   0.02  -0.04    -0.01   0.01  -0.01     0.05  -0.13   0.11
  37   1     0.02   0.03  -0.01    -0.00   0.01  -0.01     0.01  -0.07   0.07
  38   6    -0.00  -0.02  -0.00     0.00  -0.00   0.03     0.02   0.04   0.01
  39   8     0.00  -0.02  -0.01    -0.00   0.01  -0.04     0.01   0.02   0.02
  40   7    -0.00  -0.02  -0.00     0.00   0.01  -0.04     0.04   0.01  -0.00
  41   1    -0.00  -0.00  -0.01     0.01  -0.04   0.11     0.01   0.00   0.00
  42   1     0.00  -0.00  -0.00     0.00  -0.02   0.08     0.01  -0.00  -0.00
  43   7     0.04  -0.02  -0.01    -0.01   0.01  -0.04    -0.06   0.02   0.01
  44   1     0.01   0.00   0.01    -0.00  -0.02   0.08    -0.02  -0.01  -0.02
  45   1     0.02  -0.02   0.01    -0.00  -0.03   0.11    -0.03   0.03  -0.02
  46   6     0.01  -0.01   0.01     0.00  -0.00   0.00    -0.04   0.04  -0.03
  47   8     0.00  -0.01   0.00     0.00  -0.00   0.00    -0.03   0.00  -0.02
  48   7    -0.03   0.00  -0.03    -0.01   0.00  -0.00     0.08  -0.07   0.01
  49   1     0.02  -0.02  -0.01     0.00  -0.00  -0.00    -0.02   0.02  -0.01
  50   1     0.02  -0.05   0.01     0.01  -0.01   0.00    -0.06   0.08  -0.02
  51   7    -0.01   0.01  -0.04    -0.01   0.00  -0.00     0.10  -0.08   0.05
  52   1     0.06  -0.05   0.02     0.01  -0.01   0.01    -0.26   0.25  -0.15
  53   1     0.02  -0.01  -0.00     0.00  -0.00   0.00    -0.06   0.04  -0.04
                     37                     38                     39
                        a                      a                      a 
 Frequencies --   359.9001               382.9509               383.9123
 Red. masses --     5.8991                 3.2395                 7.2869
 Frc consts  --     0.0000                 0.0000                 0.0000
 IR Inten    --    47.2371               458.8174                 1.4888
 Raman Activ --     0.0000                 0.0000                 0.0000
 Depolar     --     0.0000                 0.0000                 0.0000
 Atom AN      X      Y      Z        X      Y      Z        X      Y      Z
   1   8    -0.13  -0.26  -0.15     0.01   0.04   0.01     0.03   0.03  -0.03
   2   6    -0.18  -0.01   0.06     0.01   0.00  -0.02     0.11   0.16  -0.04
   3   1    -0.08  -0.07   0.10     0.00   0.00  -0.01     0.10   0.10  -0.04
   4   1    -0.08   0.11   0.04     0.01  -0.01  -0.01     0.04  -0.03  -0.04
   5   6     0.03  -0.08  -0.05     0.02  -0.02   0.00    -0.12   0.28   0.03
   6   1     0.04  -0.01   0.01     0.01  -0.01   0.01    -0.06   0.11  -0.12
   7   1    -0.01  -0.06  -0.02     0.01  -0.02  -0.01    -0.10   0.16   0.08
   8   7     0.11  -0.00   0.02    -0.01  -0.00  -0.01     0.01  -0.05   0.04
   9   6    -0.06   0.07   0.16     0.01   0.02  -0.02    -0.22  -0.39   0.06
  10   1    -0.05   0.01   0.00     0.00   0.01   0.00    -0.10  -0.20  -0.08
  11   1    -0.07   0.03   0.07     0.01   0.01  -0.02    -0.11  -0.16   0.14
  12   1     0.02   0.03   0.10    -0.00   0.00  -0.00    -0.03  -0.06  -0.02
  13   6     0.10   0.09  -0.12    -0.01  -0.01  -0.00     0.05  -0.19   0.23
  14   1     0.03   0.07  -0.14    -0.00  -0.01   0.01     0.05   0.01  -0.05
  15   1    -0.02   0.09   0.02     0.00  -0.01  -0.01    -0.14  -0.08   0.16
  16   1     0.07  -0.05  -0.03    -0.01   0.00  -0.00     0.15  -0.13   0.15
  17   6     0.18   0.05   0.01    -0.02  -0.02   0.03     0.11   0.16  -0.30
  18   1    -0.06  -0.08   0.02     0.01   0.01   0.01     0.06  -0.02  -0.14
  19   1     0.08   0.08  -0.12    -0.01  -0.02   0.03     0.07   0.08  -0.17
  20   1     0.13   0.05   0.12    -0.01  -0.01  -0.00     0.01   0.15  -0.05
  21   1    -0.05  -0.06  -0.07     0.01   0.01   0.01    -0.02  -0.00  -0.01
  22   6     0.00   0.01   0.01    -0.00  -0.01   0.00     0.00   0.00  -0.00
  23   8     0.00   0.00   0.00     0.00  -0.00   0.01     0.00  -0.00  -0.00
  24   7    -0.00  -0.01  -0.02     0.00   0.00   0.01    -0.00   0.00  -0.00
  25   1     0.01   0.01   0.02    -0.01  -0.00  -0.01    -0.00   0.00   0.00
  26   1     0.02   0.00   0.05    -0.01  -0.00  -0.03     0.00   0.00   0.00
  27   7    -0.00  -0.01  -0.03     0.00   0.00   0.01    -0.00  -0.00  -0.00
  28   1     0.01   0.01   0.05    -0.00  -0.01  -0.03    -0.00  -0.00   0.01
  29   1     0.01   0.01   0.02     0.00  -0.01  -0.01    -0.00   0.00   0.00
  30   6    -0.01   0.09  -0.03     0.01  -0.07   0.05    -0.00   0.01   0.01
  31   8     0.01   0.06  -0.03    -0.01  -0.02   0.03     0.01   0.01  -0.01
  32   7     0.02  -0.11   0.05    -0.03   0.15  -0.09    -0.00   0.00   0.01
  33   1    -0.02   0.04  -0.04     0.01  -0.06   0.04    -0.01  -0.00   0.01
  34   1    -0.07   0.30  -0.22     0.10  -0.42   0.27    -0.00   0.02  -0.01
  35   7    -0.01  -0.10   0.11    -0.06   0.16  -0.16     0.01   0.01   0.01
  36   1    -0.06   0.09  -0.05     0.13  -0.28   0.22     0.01  -0.02   0.02
  37   1    -0.03   0.05  -0.06     0.03  -0.06   0.09     0.01   0.01   0.01
  38   6     0.02   0.04   0.02    -0.00   0.01  -0.02     0.00  -0.00   0.00
  39   8     0.01   0.02   0.01    -0.00  -0.01   0.03     0.00  -0.00   0.00
  40   7     0.04   0.02   0.00    -0.01  -0.01   0.02     0.01  -0.01  -0.01
  41   1     0.01   0.00   0.01    -0.00   0.02  -0.08     0.01  -0.01   0.01
  42   1     0.01  -0.00   0.00    -0.00   0.01  -0.04     0.00  -0.01  -0.00
  43   7    -0.07   0.03   0.00     0.00  -0.01   0.03     0.02  -0.00  -0.01
  44   1    -0.02  -0.02   0.01    -0.00   0.02  -0.05     0.01   0.00   0.00
  45   1    -0.03   0.02   0.04     0.00   0.03  -0.11     0.01  -0.01   0.01
  46   6     0.05  -0.06   0.04     0.06  -0.06   0.04     0.01  -0.02   0.01
  47   8     0.04  -0.03   0.02     0.04  -0.02   0.03     0.01  -0.01   0.01
  48   7    -0.10   0.08  -0.03    -0.12   0.09  -0.04    -0.02   0.01   0.01
  49   1     0.03  -0.03  -0.00     0.04  -0.03  -0.00     0.00  -0.01   0.01
  50   1     0.09  -0.11   0.03     0.09  -0.12   0.03     0.01  -0.01   0.01
  51   7    -0.11   0.10  -0.08    -0.12   0.12  -0.09    -0.02   0.01  -0.01
  52   1     0.31  -0.30   0.17     0.39  -0.38   0.22     0.05  -0.05   0.03
  53   1     0.07  -0.05   0.03     0.05  -0.03   0.03     0.00  -0.01   0.00
                     40                     41                     42
                        a                      a                      a 
 Frequencies --   427.2373               444.4709               445.0995
 Red. masses --     2.3604                 7.0672                 3.3716
 Frc consts  --     0.0000                 0.0000                 0.0000
 IR Inten    --   687.0106                 8.7997                 3.6658
 Raman Activ --     0.0000                 0.0000                 0.0000
 Depolar     --     0.0000                 0.0000                 0.0000
 Atom AN      X      Y      Z        X      Y      Z        X      Y      Z
   1   8     0.01   0.00  -0.00     0.15   0.14   0.08    -0.08  -0.08  -0.05
   2   6    -0.02  -0.02   0.02     0.02  -0.06   0.08    -0.01   0.03  -0.04
   3   1    -0.01  -0.01   0.01    -0.01  -0.03   0.02     0.01   0.01  -0.01
   4   1    -0.01   0.01   0.01     0.00   0.00   0.03    -0.00  -0.00  -0.02
   5   6    -0.03   0.01  -0.02    -0.03  -0.01  -0.13     0.01   0.01   0.07
   6   1    -0.01   0.00  -0.02    -0.02  -0.00  -0.06     0.01   0.00   0.03
   7   1    -0.01   0.02   0.00     0.02   0.05  -0.03    -0.01  -0.03   0.02
   8   7    -0.01  -0.00  -0.02    -0.15  -0.06  -0.23     0.09   0.03   0.13
   9   6    -0.01   0.01  -0.00    -0.26   0.21  -0.07     0.15  -0.11   0.05
  10   1    -0.01   0.00  -0.01    -0.08   0.04  -0.04     0.05  -0.02   0.03
  11   1    -0.01   0.01   0.00    -0.16   0.10  -0.01     0.09  -0.05   0.01
  12   1     0.00   0.01   0.01    -0.01   0.10   0.06     0.01  -0.05  -0.03
  13   6     0.01  -0.02  -0.01    -0.02  -0.29  -0.01     0.01   0.17   0.00
  14   1     0.01   0.00  -0.01     0.05  -0.04  -0.01    -0.03   0.02   0.00
  15   1    -0.01  -0.01   0.00    -0.08  -0.15   0.02     0.05   0.09  -0.01
  16   1     0.01  -0.02   0.00     0.06  -0.11   0.04    -0.04   0.07  -0.03
  17   6     0.03   0.02   0.00     0.25   0.07   0.26    -0.14  -0.05  -0.15
  18   1    -0.00   0.01   0.01    -0.00   0.13   0.17     0.00  -0.07  -0.10
  19   1     0.02   0.00  -0.01     0.19  -0.06   0.07    -0.11   0.03  -0.04
  20   1     0.02   0.01   0.01     0.12   0.03   0.13    -0.07  -0.02  -0.08
  21   1    -0.03  -0.03   0.06     0.04   0.03   0.04    -0.02  -0.02  -0.02
  22   6     0.00  -0.03   0.04     0.04  -0.02  -0.01     0.05  -0.02  -0.01
  23   8     0.02   0.00   0.04     0.05  -0.02  -0.01     0.05  -0.02  -0.01
  24   7    -0.01   0.02   0.04    -0.02   0.03  -0.07    -0.03   0.01  -0.12
  25   1    -0.03   0.01   0.03    -0.00   0.08   0.24     0.03   0.13   0.44
  26   1    -0.06   0.00  -0.16    -0.05   0.04  -0.20    -0.10   0.04  -0.37
  27   7     0.02  -0.01   0.04    -0.02  -0.02   0.07     0.01  -0.01   0.12
  28   1    -0.01  -0.03  -0.17    -0.00  -0.02   0.23     0.01  -0.00   0.38
  29   1     0.02  -0.02   0.02    -0.13  -0.02  -0.23    -0.20  -0.06  -0.41
  30   6     0.00   0.02  -0.01     0.03   0.01  -0.00    -0.02  -0.00   0.00
  31   8    -0.00   0.01  -0.00     0.01   0.02   0.02    -0.00  -0.01  -0.01
  32   7     0.00  -0.03   0.02    -0.00  -0.03  -0.04     0.00   0.01   0.02
  33   1     0.00  -0.00   0.00    -0.01  -0.02  -0.01     0.01   0.01   0.00
  34   1    -0.03   0.11  -0.07     0.01  -0.01  -0.02    -0.00   0.01   0.01
  35   7     0.01  -0.03   0.03    -0.04  -0.01   0.00     0.02   0.01  -0.00
  36   1    -0.02   0.04  -0.03    -0.03   0.01   0.02     0.01  -0.01  -0.01
  37   1    -0.01   0.01  -0.02    -0.02  -0.02  -0.02     0.01   0.01   0.01
  38   6    -0.00   0.03  -0.11    -0.03  -0.02  -0.00    -0.00   0.02   0.00
  39   8     0.01  -0.04   0.17    -0.02   0.03  -0.01    -0.01  -0.00   0.01
  40   7     0.00  -0.05   0.13    -0.01  -0.03  -0.02     0.01  -0.01   0.00
  41   1    -0.02   0.17  -0.55     0.01  -0.02   0.04     0.01   0.00  -0.01
  42   1    -0.00   0.07  -0.24    -0.01  -0.02   0.01    -0.00  -0.01  -0.02
  43   7     0.02  -0.04   0.14     0.05   0.00  -0.01    -0.01   0.02   0.01
  44   1    -0.00   0.08  -0.24     0.02   0.02   0.02    -0.00   0.01  -0.00
  45   1    -0.00   0.16  -0.56     0.04  -0.03   0.02    -0.01   0.01  -0.02
  46   6    -0.00   0.00  -0.01     0.01   0.01   0.00    -0.00  -0.01  -0.00
  47   8    -0.00  -0.00  -0.01    -0.01  -0.01   0.00     0.01   0.01  -0.00
  48   7     0.01  -0.01   0.01     0.01  -0.00  -0.02    -0.00   0.00   0.01
  49   1    -0.00   0.00   0.00    -0.00   0.01  -0.02     0.00  -0.01   0.01
  50   1    -0.01   0.02  -0.00     0.00  -0.02   0.00    -0.00   0.01  -0.00
  51   7     0.01  -0.01   0.01     0.01   0.01  -0.00    -0.01  -0.01   0.00
  52   1    -0.05   0.04  -0.02    -0.01   0.01  -0.01     0.00  -0.01   0.00
  53   1     0.00  -0.00   0.00     0.00   0.01   0.00    -0.00  -0.00  -0.00
                     43                     44                     45
                        a                      a                      a 
 Frequencies --   457.5076               460.0447               465.5841
 Red. masses --     8.5522                 1.9950                 8.0361
 Frc consts  --     0.0000                 0.0000                 0.0000
 IR Inten    --     4.5841                20.9119                 2.9588
 Raman Activ --     0.0000                 0.0000                 0.0000
 Depolar     --     0.0000                 0.0000                 0.0000
 Atom AN      X      Y      Z        X      Y      Z        X      Y      Z
   1   8    -0.00  -0.01  -0.01     0.00  -0.01   0.01     0.02  -0.00  -0.01
   2   6    -0.00  -0.00  -0.00     0.01   0.01   0.00    -0.10  -0.15   0.05
   3   1     0.00  -0.00   0.00     0.00   0.00   0.00    -0.03  -0.04   0.01
   4   1    -0.00  -0.00  -0.00     0.00   0.00   0.00    -0.05  -0.05   0.00
   5   6    -0.01   0.01  -0.00     0.00   0.02  -0.00    -0.05  -0.17   0.16
   6   1    -0.01   0.00  -0.02    -0.00   0.01  -0.01     0.00  -0.08   0.17
   7   1    -0.01   0.01   0.01    -0.00   0.01   0.01     0.05  -0.13  -0.03
   8   7     0.03  -0.02   0.02     0.02  -0.01   0.00    -0.23   0.21   0.09
   9   6     0.02   0.00   0.03     0.01  -0.01   0.01     0.06  -0.11  -0.26
  10   1     0.01   0.01   0.01    -0.00   0.00   0.00     0.09  -0.09  -0.04
  11   1     0.01   0.00   0.00     0.01  -0.00   0.00     0.08  -0.09  -0.05
  12   1     0.01  -0.00   0.01    -0.00  -0.01   0.01    -0.02  -0.01  -0.21
  13   6    -0.02   0.03  -0.01    -0.02   0.01   0.00     0.29  -0.08  -0.06
  14   1    -0.02  -0.00  -0.01    -0.01  -0.00   0.00     0.23   0.09  -0.02
  15   1     0.01   0.02  -0.00    -0.00   0.01   0.00     0.06  -0.10  -0.03
  16   1    -0.01   0.01  -0.01    -0.01   0.01   0.00     0.11  -0.15  -0.05
  17   6     0.00  -0.03  -0.03    -0.00  -0.02  -0.02    -0.09   0.36   0.07
  18   1     0.01  -0.01  -0.02    -0.00  -0.01  -0.01    -0.08   0.05   0.02
  19   1    -0.01  -0.00  -0.00    -0.01   0.00  -0.01     0.03   0.12  -0.07
  20   1    -0.01  -0.01  -0.02    -0.00  -0.00  -0.01     0.02   0.15   0.10
  21   1    -0.00  -0.00  -0.00    -0.00  -0.00   0.01     0.03   0.01   0.00
  22   6     0.29  -0.12  -0.05    -0.00   0.00   0.00     0.02  -0.01  -0.00
  23   8     0.32  -0.13  -0.05    -0.00   0.00   0.00     0.02  -0.01  -0.00
  24   7    -0.07   0.41  -0.01     0.00  -0.00   0.00    -0.00   0.02  -0.00
  25   1    -0.29   0.04  -0.08     0.00  -0.00   0.00    -0.01   0.00  -0.00
  26   1     0.09   0.32   0.02    -0.00  -0.00  -0.00     0.00   0.02  -0.00
  27   7    -0.33  -0.24   0.08     0.00   0.00  -0.00    -0.02  -0.01   0.01
  28   1    -0.17  -0.29  -0.01     0.00   0.00  -0.00    -0.01  -0.02   0.00
  29   1    -0.20   0.17   0.17     0.00  -0.00   0.00    -0.01   0.01   0.00
  30   6    -0.00  -0.00   0.00     0.07   0.06  -0.04    -0.07  -0.02  -0.03
  31   8    -0.00  -0.00  -0.00    -0.02   0.14   0.07    -0.06  -0.03  -0.05
  32   7     0.00   0.00   0.00     0.07  -0.14  -0.03     0.00   0.04   0.10
  33   1     0.00   0.00   0.00    -0.04   0.06  -0.08     0.04   0.05   0.01
  34   1     0.00  -0.00   0.00     0.05  -0.15   0.04    -0.02   0.02   0.07
  35   7     0.00   0.00  -0.00    -0.05   0.05  -0.06     0.09   0.01  -0.04
  36   1     0.00  -0.00  -0.00    -0.27   0.42  -0.14     0.03   0.03  -0.08
  37   1     0.00  -0.00   0.00     0.02  -0.70   0.35     0.06  -0.04   0.08
  38   6    -0.05   0.02   0.01     0.00  -0.00  -0.00     0.01   0.01   0.00
  39   8    -0.06   0.03   0.00    -0.00   0.00   0.00     0.00  -0.00  -0.00
  40   7     0.01  -0.05  -0.01     0.00  -0.00   0.00    -0.00   0.01   0.00
  41   1     0.04  -0.01  -0.00    -0.00   0.00  -0.01    -0.00   0.00   0.01
  42   1    -0.01  -0.05   0.00     0.00   0.00  -0.00    -0.00   0.00   0.00
  43   7     0.03   0.05   0.01     0.00  -0.00   0.00    -0.02   0.01   0.00
  44   1     0.02   0.04   0.00     0.00   0.00  -0.00    -0.01  -0.01   0.00
  45   1     0.03  -0.02   0.02     0.00   0.00  -0.01    -0.01   0.01   0.01
  46   6    -0.00  -0.00  -0.00     0.00  -0.00   0.01    -0.02  -0.04  -0.07
  47   8     0.00   0.00  -0.00     0.00   0.00   0.01     0.05   0.02  -0.09
  48   7    -0.00   0.00   0.00    -0.02  -0.00  -0.01     0.03   0.07   0.07
  49   1     0.00  -0.00   0.00     0.01  -0.01  -0.00     0.03  -0.04   0.13
  50   1     0.00   0.00  -0.00    -0.01  -0.01   0.00     0.04   0.12  -0.01
  51   7    -0.00  -0.00   0.00     0.00   0.01  -0.01    -0.08  -0.07   0.06
  52   1     0.00  -0.00   0.00     0.05  -0.04   0.02    -0.03  -0.06   0.03
  53   1    -0.00   0.00   0.00    -0.01   0.01  -0.01    -0.02   0.01   0.04
                     46                     47                     48
                        a                      a                      a 
 Frequencies --   469.6195               474.0112               477.7527
 Red. masses --     4.4337                 8.0722                 6.3503
 Frc consts  --     0.0000                 0.0000                 0.0000
 IR Inten    --    15.0253                12.7033                 7.1625
 Raman Activ --     0.0000                 0.0000                 0.0000
 Depolar     --     0.0000                 0.0000                 0.0000
 Atom AN      X      Y      Z        X      Y      Z        X      Y      Z
   1   8    -0.03  -0.05  -0.02    -0.03  -0.02   0.00    -0.03  -0.05  -0.02
   2   6    -0.01   0.01  -0.01     0.01   0.04  -0.02     0.01   0.04  -0.02
   3   1    -0.02  -0.01   0.01    -0.00   0.01  -0.00    -0.02  -0.01   0.01
   4   1    -0.00   0.02   0.01     0.01   0.02   0.00     0.01   0.04   0.01
   5   6     0.09  -0.06   0.01     0.09  -0.03   0.02     0.10  -0.03  -0.05
   6   1     0.05  -0.03   0.10     0.05  -0.02   0.08     0.05  -0.02   0.06
   7   1     0.06  -0.09  -0.05     0.06  -0.07  -0.04     0.06  -0.06  -0.06
   8   7    -0.04   0.14  -0.01    -0.02   0.10  -0.02     0.01   0.11  -0.05
   9   6    -0.02  -0.09  -0.12    -0.01  -0.08  -0.10    -0.07  -0.05  -0.07
  10   1     0.00  -0.06  -0.05    -0.01  -0.02  -0.03    -0.03  -0.05  -0.06
  11   1     0.01  -0.06   0.01     0.04  -0.06  -0.01    -0.03  -0.04   0.03
  12   1    -0.02  -0.02  -0.09    -0.04  -0.04  -0.06    -0.01   0.01  -0.04
  13   6     0.11   0.01   0.07     0.05   0.01   0.08     0.05   0.01   0.10
  14   1     0.07   0.03   0.04     0.03   0.01   0.04     0.03   0.01   0.04
  15   1     0.01  -0.05   0.02    -0.00  -0.04   0.02    -0.02  -0.04   0.03
  16   1     0.05  -0.02   0.03     0.03   0.00   0.04     0.04   0.01   0.05
  17   6    -0.10   0.09   0.03    -0.10   0.02   0.02    -0.06   0.01   0.06
  18   1    -0.05   0.02   0.01    -0.06  -0.02   0.01    -0.03   0.02   0.03
  19   1    -0.04   0.03   0.01    -0.05   0.03  -0.00    -0.04  -0.00   0.04
  20   1    -0.01  -0.00   0.01    -0.01  -0.02   0.02    -0.01  -0.04   0.00
  21   1    -0.00  -0.01  -0.01    -0.01  -0.01  -0.00    -0.01  -0.01  -0.01
  22   6     0.01  -0.01  -0.00     0.01  -0.00  -0.00     0.01  -0.00  -0.00
  23   8     0.01  -0.01  -0.00     0.01  -0.00  -0.00     0.01  -0.01  -0.00
  24   7    -0.00   0.02  -0.00    -0.00   0.01  -0.00     0.00   0.01  -0.00
  25   1    -0.01   0.00   0.00    -0.01   0.00   0.00    -0.01   0.00   0.00
  26   1     0.00   0.01  -0.01     0.00   0.01  -0.00     0.00   0.01  -0.00
  27   7    -0.01  -0.01   0.01    -0.01  -0.01   0.00    -0.01  -0.01   0.00
  28   1    -0.01  -0.01  -0.00    -0.00  -0.01   0.00    -0.00  -0.01  -0.00
  29   1    -0.01   0.01   0.00    -0.00   0.00   0.00    -0.01   0.00   0.00
  30   6     0.04   0.03   0.03     0.25   0.09   0.07    -0.04  -0.02   0.02
  31   8     0.04   0.03   0.02     0.19   0.17   0.21    -0.01  -0.04  -0.04
  32   7    -0.02  -0.04  -0.06     0.03  -0.16  -0.36    -0.03   0.02   0.05
  33   1    -0.04  -0.03  -0.01    -0.15  -0.13  -0.06     0.01   0.01   0.02
  34   1     0.02  -0.03  -0.05     0.10  -0.10  -0.23    -0.02   0.03   0.01
  35   7    -0.05   0.01   0.04    -0.33  -0.02   0.14     0.05   0.02   0.00
  36   1    -0.03   0.00   0.05    -0.16  -0.03   0.28     0.03   0.01  -0.05
[...]
  44   1    -0.00   0.00   0.00     0.81  -0.22  -0.10     0.39  -0.10  -0.05
  45   1     0.00   0.00   0.00    -0.18  -0.14  -0.04    -0.10  -0.08  -0.02
  46   6    -0.00  -0.01  -0.00    -0.00   0.00   0.00    -0.00   0.00   0.00
  47   8    -0.00   0.00   0.00     0.00  -0.00  -0.00     0.00  -0.00  -0.00
  48   7     0.00   0.00  -0.00     0.00  -0.00  -0.00     0.00  -0.00  -0.00
  49   1     0.01   0.01   0.00     0.00   0.00   0.00     0.00   0.00   0.00
  50   1     0.00  -0.00  -0.01    -0.00  -0.00  -0.00    -0.00  -0.00  -0.00
  51   7    -0.14  -0.12   0.09     0.00   0.00  -0.00     0.00   0.00  -0.00
  52   1    -0.04   0.05   0.16     0.00  -0.00  -0.00     0.00  -0.00  -0.00
  53   1     0.56   0.39  -0.48    -0.00  -0.00   0.00    -0.00  -0.00   0.00
                    142                    143                    144
                        a                      a                      a 
 Frequencies --  3496.3090              3499.4681              3500.0691
 Red. masses --     1.4392                 1.4545                 1.4639
 Frc consts  --     0.0000                 0.0000                 0.0000
 IR Inten    --    39.9549                15.5674                 3.6642
 Raman Activ --     0.0000                 0.0000                 0.0000
 Depolar     --     0.0000                 0.0000                 0.0000
 Atom AN      X      Y      Z        X      Y      Z        X      Y      Z
   1   8     0.00  -0.00  -0.00     0.00  -0.00  -0.00     0.00   0.00   0.00
   2   6     0.00   0.00  -0.00    -0.00   0.00   0.00    -0.00  -0.00  -0.00
   3   1     0.00   0.00  -0.00    -0.00   0.00   0.00    -0.00   0.00   0.00
   4   1    -0.00  -0.00   0.00     0.00  -0.00  -0.00    -0.00  -0.00   0.00
   5   6     0.00   0.00  -0.00     0.00  -0.00   0.00     0.00  -0.00  -0.00
   6   1    -0.00   0.00  -0.00    -0.00  -0.00  -0.00     0.00   0.00   0.00
   7   1     0.00  -0.00   0.00    -0.00   0.00  -0.00    -0.00   0.00  -0.00
   8   7    -0.00  -0.00   0.00    -0.00  -0.00   0.00    -0.00   0.00   0.00
   9   6    -0.00  -0.00  -0.00    -0.00  -0.00  -0.00     0.00  -0.00   0.00
  10   1    -0.00   0.00   0.00     0.00   0.00  -0.00     0.00   0.00  -0.00
  11   1     0.00   0.00   0.00     0.00   0.00   0.00    -0.00  -0.00  -0.00
  12   1    -0.00   0.00  -0.00    -0.00  -0.00  -0.00    -0.00   0.00   0.00
  13   6    -0.00   0.00  -0.00    -0.00  -0.00   0.00     0.00  -0.00   0.00
  14   1     0.00   0.00  -0.00    -0.00  -0.00   0.00    -0.00   0.00   0.00
  15   1     0.00  -0.00   0.00    -0.00  -0.00  -0.00    -0.00   0.00  -0.00
  16   1    -0.00   0.00   0.00     0.00   0.00  -0.00    -0.00  -0.00   0.00
  17   6    -0.00  -0.00   0.00    -0.00  -0.00  -0.00    -0.00  -0.00  -0.00
  18   1     0.00  -0.00   0.00    -0.00   0.00  -0.00    -0.00   0.00  -0.00
  19   1     0.00   0.00  -0.00     0.00   0.00   0.00     0.00   0.00   0.00
  20   1     0.00   0.00  -0.00     0.00   0.00  -0.00    -0.00   0.00  -0.00
  21   1    -0.00   0.00   0.00     0.00   0.00   0.00     0.00  -0.00   0.00
  22   6    -0.00  -0.00   0.00     0.00  -0.00  -0.00    -0.00   0.00   0.00
  23   8    -0.00  -0.00  -0.00    -0.00   0.00   0.00     0.00  -0.00  -0.00
  24   7    -0.10  -0.06   0.06     0.00   0.00  -0.00    -0.09  -0.07   0.06
  25   1    -0.09   0.44  -0.11     0.00  -0.01   0.00    -0.09   0.46  -0.11
  26   1     0.45  -0.22  -0.13    -0.01   0.00   0.00     0.44  -0.21  -0.13
  27   7     0.04  -0.12   0.04     0.00  -0.00   0.00    -0.03   0.12  -0.04
  28   1    -0.48   0.17   0.03    -0.01   0.00   0.00     0.47  -0.17  -0.03
  29   1     0.34   0.27  -0.18     0.01   0.01  -0.00    -0.35  -0.27   0.19
  30   6     0.00   0.00  -0.00     0.00   0.00   0.00     0.00   0.00   0.00
  31   8    -0.00  -0.00   0.00    -0.00  -0.00  -0.00    -0.00  -0.00  -0.00
  32   7     0.00   0.00   0.00    -0.00  -0.01  -0.01    -0.00  -0.00  -0.00
  33   1     0.00  -0.00  -0.00    -0.00   0.01   0.02    -0.00   0.00   0.00
  34   1    -0.00  -0.00  -0.00     0.03   0.01   0.01     0.00   0.00   0.00
  35   7     0.00   0.00   0.00    -0.00   0.13   0.13     0.00   0.00   0.00
  36   1    -0.00  -0.00  -0.00    -0.58  -0.41  -0.20    -0.01  -0.01  -0.00
  37   1     0.00  -0.00  -0.00     0.58  -0.10  -0.27     0.01  -0.00  -0.01
  38   6     0.00   0.00   0.00    -0.00   0.00   0.00    -0.00   0.00   0.00
  39   8     0.00  -0.00   0.00     0.00  -0.00  -0.00    -0.00   0.00   0.00
  40   7     0.00  -0.00   0.00    -0.00   0.00   0.00     0.01   0.00   0.00
  41   1     0.00  -0.00  -0.00     0.00  -0.00  -0.00     0.00  -0.02  -0.01
  42   1    -0.00   0.00  -0.00     0.00  -0.00  -0.00    -0.02   0.01   0.00
  43   7    -0.00   0.00   0.00    -0.00  -0.00  -0.00     0.00  -0.00  -0.00
  44   1     0.00  -0.00  -0.00     0.00   0.00   0.00    -0.02   0.01   0.00
  45   1    -0.00  -0.00  -0.00     0.00   0.00   0.00     0.01   0.01   0.00
  46   6     0.00   0.00  -0.00     0.00  -0.00  -0.00     0.00   0.00  -0.00
  47   8     0.00  -0.00   0.00    -0.00   0.00   0.00     0.00   0.00   0.00
  48   7     0.00   0.00  -0.00    -0.00  -0.00   0.00     0.00   0.00  -0.00
  49   1    -0.00  -0.00  -0.00     0.01   0.01   0.00    -0.00  -0.01  -0.00
  50   1    -0.00   0.00   0.00     0.00  -0.00  -0.02    -0.00   0.00   0.01
  51   7    -0.00  -0.00   0.00    -0.00  -0.00  -0.00    -0.00  -0.00   0.00
  52   1    -0.00   0.00   0.00    -0.00   0.00   0.01     0.00  -0.00  -0.00
  53   1     0.00   0.00  -0.00     0.01   0.01  -0.01     0.00   0.00  -0.00
                    145                    146                    147
                        a                      a                      a 
 Frequencies --  3501.1498              3538.0716              3542.6731
 Red. masses --     1.4483                 1.9520                 1.9620
 Frc consts  --     0.0000                 0.0000                 0.0000
 IR Inten    --    18.7544                12.6256                20.3542
 Raman Activ --     0.0000                 0.0000                 0.0000
 Depolar     --     0.0000                 0.0000                 0.0000
 Atom AN      X      Y      Z        X      Y      Z        X      Y      Z
   1   8     0.00  -0.00  -0.00    -0.00  -0.00  -0.00    -0.00  -0.00  -0.00
   2   6    -0.00  -0.00   0.00     0.00   0.00   0.00     0.00  -0.00   0.00
   3   1    -0.00  -0.00   0.00     0.00  -0.00   0.00    -0.00   0.00   0.00
   4   1     0.00   0.00  -0.00    -0.00  -0.00  -0.00    -0.00   0.00  -0.00
   5   6    -0.00  -0.00   0.00     0.00   0.00  -0.00    -0.00  -0.00  -0.00
   6   1    -0.00   0.00  -0.00    -0.00  -0.00   0.00    -0.00   0.00   0.00
   7   1    -0.00   0.00  -0.00    -0.00  -0.00   0.00    -0.00  -0.00  -0.00
   8   7    -0.00   0.00   0.00    -0.00  -0.00  -0.00     0.00  -0.00  -0.00
   9   6     0.00   0.00  -0.00    -0.00  -0.00  -0.00     0.00   0.00   0.00
  10   1    -0.00  -0.00   0.00     0.00  -0.00  -0.00    -0.00  -0.00   0.00
  11   1    -0.00  -0.00  -0.00     0.00   0.00   0.00    -0.00  -0.00  -0.00
  12   1     0.00  -0.00  -0.00    -0.00  -0.00   0.00     0.00   0.00   0.00
  13   6     0.00   0.00  -0.00     0.00   0.00  -0.00    -0.00  -0.00   0.00
  14   1     0.00  -0.00  -0.00     0.00  -0.00  -0.00    -0.00   0.00   0.00
  15   1    -0.00   0.00  -0.00    -0.00  -0.00   0.00     0.00   0.00   0.00
  16   1    -0.00   0.00   0.00    -0.00  -0.00  -0.00    -0.00  -0.00  -0.00
  17   6     0.00   0.00  -0.00    -0.00  -0.00  -0.00     0.00   0.00   0.00
  18   1    -0.00   0.00  -0.00    -0.00  -0.00   0.00     0.00   0.00   0.00
  19   1    -0.00  -0.00  -0.00     0.00   0.00   0.00    -0.00  -0.00  -0.00
  20   1    -0.00  -0.00   0.00    -0.00   0.00  -0.00    -0.00  -0.00   0.00
  21   1    -0.00   0.00   0.00    -0.00   0.00   0.00    -0.00   0.01   0.00
  22   6    -0.00   0.00   0.00    -0.00   0.00   0.00    -0.00   0.00   0.00
  23   8     0.00  -0.00  -0.00     0.00  -0.00  -0.00     0.00  -0.00  -0.00
  24   7    -0.00  -0.00   0.00    -0.00   0.00   0.00     0.00  -0.00  -0.00
  25   1    -0.00   0.01  -0.00     0.00  -0.00   0.00    -0.00   0.00  -0.00
  26   1     0.01  -0.00  -0.00     0.00  -0.00  -0.00    -0.00   0.00   0.00
  27   7    -0.00   0.00  -0.00     0.00  -0.00  -0.00     0.00  -0.00  -0.00
  28   1     0.00  -0.00  -0.00    -0.00   0.00   0.00    -0.00   0.00   0.00
  29   1    -0.00  -0.00   0.00    -0.00  -0.00   0.00    -0.00  -0.00   0.00
  30   6    -0.00  -0.00   0.00    -0.00  -0.00  -0.00     0.00   0.01   0.01
  31   8     0.00   0.00  -0.00     0.00   0.00   0.00    -0.00  -0.00  -0.00
  32   7     0.00   0.00   0.00     0.00   0.00   0.00     0.20   0.13   0.13
  33   1     0.00  -0.00  -0.00     0.00   0.00   0.00     0.03  -0.08  -0.13
  34   1    -0.00  -0.00  -0.00    -0.01  -0.01  -0.01    -0.77  -0.41  -0.35
  35   7    -0.00  -0.00  -0.00     0.01   0.00   0.00    -0.04  -0.00   0.01
  36   1     0.01   0.01   0.00    -0.02  -0.01  -0.01     0.04   0.03   0.01
  37   1    -0.01   0.00   0.01    -0.01   0.00   0.00     0.10  -0.02  -0.05
  38   6    -0.00   0.00   0.00    -0.00   0.00   0.00    -0.00   0.00   0.00
  39   8     0.00  -0.00  -0.00    -0.00  -0.00  -0.00     0.00  -0.00  -0.00
  40   7     0.00   0.00   0.00    -0.00   0.00   0.00    -0.00   0.01   0.00
  41   1     0.00  -0.00  -0.00     0.00  -0.00  -0.00     0.00  -0.03  -0.01
  42   1    -0.00   0.00   0.00     0.00  -0.00  -0.00     0.01  -0.00  -0.00
  43   7     0.00  -0.00  -0.00     0.00  -0.00  -0.00     0.00   0.00   0.00
  44   1    -0.00   0.00   0.00    -0.00   0.00   0.00    -0.00   0.00   0.00
  45   1     0.00   0.00   0.00    -0.00  -0.00  -0.00    -0.00  -0.00  -0.00
  46   6    -0.00  -0.00   0.00    -0.01  -0.00   0.01     0.00  -0.00  -0.00
  47   8    -0.00  -0.00  -0.00     0.00  -0.00  -0.00    -0.00   0.00   0.00
  48   7    -0.10  -0.08   0.13    -0.01  -0.02  -0.02     0.00   0.00   0.00
  49   1     0.36   0.51   0.23     0.05   0.07   0.03    -0.00  -0.00  -0.00
  50   1     0.02  -0.19  -0.70    -0.00   0.01   0.03     0.00  -0.00  -0.00
  51   7     0.01   0.00  -0.01    -0.07   0.07   0.25     0.00  -0.00  -0.00
  52   1    -0.01   0.01   0.03     0.17  -0.34  -0.87    -0.00   0.00   0.01
  53   1    -0.01  -0.01   0.01     0.11   0.09  -0.08    -0.00  -0.00   0.00
                    148                    149                    150
                        a                      a                      a 
 Frequencies --  3549.0279              3559.5287              3560.0050
 Red. masses --     2.0544                 2.1833                 2.0335
 Frc consts  --     0.0000                 0.0000                 0.0000
 IR Inten    --    48.5008                10.6480                46.2920
 Raman Activ --     0.0000                 0.0000                 0.0000
 Depolar     --     0.0000                 0.0000                 0.0000
 Atom AN      X      Y      Z        X      Y      Z        X      Y      Z
   1   8    -0.00  -0.00  -0.00     0.00  -0.00  -0.00     0.00  -0.00  -0.00
   2   6     0.00  -0.00   0.00     0.00   0.00   0.00     0.00  -0.00   0.00
   3   1     0.00  -0.00  -0.00     0.00  -0.00  -0.00     0.00  -0.00  -0.00
   4   1     0.00   0.00  -0.00     0.00   0.00   0.00     0.00   0.00  -0.00
   5   6    -0.00  -0.00  -0.00     0.00  -0.00  -0.00     0.00  -0.00  -0.00
   6   1    -0.00   0.00  -0.00    -0.00   0.00  -0.00    -0.00   0.00  -0.00
   7   1    -0.00  -0.00  -0.00     0.00  -0.00   0.00     0.00  -0.00  -0.00
   8   7    -0.00  -0.00  -0.00    -0.00  -0.00   0.00    -0.00  -0.00  -0.00
   9   6    -0.00  -0.00  -0.00     0.00  -0.00  -0.00     0.00  -0.00  -0.00
  10   1     0.00  -0.00  -0.00     0.00  -0.00  -0.00     0.00  -0.00  -0.00
  11   1     0.00   0.00   0.00     0.00   0.00   0.00     0.00   0.00   0.00
  12   1    -0.00   0.00   0.00    -0.00   0.00   0.00    -0.00   0.00   0.00
  13   6    -0.00   0.00   0.00    -0.00   0.00   0.00    -0.00   0.00   0.00
  14   1     0.00  -0.00  -0.00     0.00  -0.00  -0.00     0.00  -0.00  -0.00
  15   1    -0.00   0.00  -0.00     0.00  -0.00   0.00     0.00  -0.00  -0.00
  16   1    -0.00   0.00   0.00     0.00  -0.00  -0.00     0.00  -0.00  -0.00
  17   6    -0.00  -0.00   0.00    -0.00  -0.00   0.00     0.00  -0.00  -0.00
  18   1     0.00   0.00  -0.00     0.00  -0.00   0.00     0.00  -0.00  -0.00
  19   1     0.00   0.00   0.00     0.00   0.00   0.00     0.00   0.00   0.00
  20   1     0.00   0.00  -0.00     0.00   0.00  -0.00     0.00  -0.00  -0.00
  21   1    -0.00   0.01   0.00    -0.00   0.00   0.00    -0.00   0.01   0.00
  22   6     0.00  -0.00  -0.00    -0.00  -0.01   0.00     0.00   0.00  -0.00
  23   8    -0.00   0.00   0.00     0.00   0.00  -0.00    -0.00   0.00   0.00
  24   7    -0.00   0.00   0.00     0.11  -0.16  -0.00    -0.04   0.04   0.00
  25   1     0.00  -0.01   0.00    -0.07   0.44  -0.11     0.02  -0.12   0.03
  26   1     0.02  -0.01  -0.00    -0.36   0.16   0.11     0.11  -0.05  -0.03
  27   7    -0.00   0.00   0.00    -0.21  -0.03   0.06     0.02   0.01  -0.01
  28   1     0.01  -0.00  -0.00     0.44  -0.18  -0.02    -0.04   0.02   0.00
  29   1     0.00   0.00  -0.00     0.37   0.31  -0.21    -0.04  -0.04   0.02
  30   6     0.00   0.00   0.00     0.00   0.00  -0.00     0.00   0.00  -0.00
  31   8    -0.00  -0.00  -0.00    -0.00  -0.00   0.00    -0.00  -0.00  -0.00
  32   7     0.01   0.00   0.00     0.00   0.00   0.00     0.00   0.00   0.00
  33   1     0.00  -0.00  -0.01     0.00  -0.00  -0.00     0.00  -0.00  -0.00
  34   1    -0.02  -0.01  -0.01    -0.00  -0.00  -0.00    -0.00  -0.00  -0.00
  35   7    -0.00  -0.00   0.00     0.00   0.00   0.00    -0.00  -0.00   0.00
  36   1     0.00   0.00   0.00    -0.00  -0.00  -0.00     0.00   0.00   0.00
  37   1     0.01  -0.00  -0.00    -0.00   0.00   0.00     0.00  -0.00  -0.00
  38   6     0.00  -0.01  -0.00     0.00   0.00  -0.00     0.01  -0.00  -0.00
  39   8    -0.00   0.00   0.00    -0.00  -0.00   0.00    -0.00  -0.00  -0.00
  40   7     0.10  -0.25  -0.08     0.01  -0.01  -0.00     0.03  -0.06  -0.02
  41   1    -0.11   0.84   0.26    -0.01   0.04   0.01    -0.03   0.20   0.06
  42   1    -0.27   0.09   0.03    -0.02   0.01   0.00    -0.08   0.03   0.01
  43   7    -0.06  -0.04  -0.01     0.04   0.03   0.01     0.22   0.14   0.03
  44   1     0.03  -0.01  -0.01    -0.04   0.01   0.01    -0.21   0.07   0.03
  45   1     0.17   0.16   0.04    -0.12  -0.11  -0.03    -0.64  -0.58  -0.16
  46   6     0.00   0.00   0.00    -0.00   0.00   0.00    -0.00  -0.00  -0.00
  47   8    -0.00  -0.00  -0.00     0.00  -0.00   0.00     0.00   0.00   0.00
  48   7    -0.00  -0.00  -0.00     0.00   0.00   0.00    -0.00  -0.00  -0.00
  49   1     0.00   0.00   0.00    -0.00  -0.00  -0.00     0.00   0.00   0.00
  50   1     0.00  -0.00  -0.00     0.00  -0.00  -0.00    -0.00   0.00   0.00
  51   7    -0.00   0.00   0.00    -0.00   0.00   0.00    -0.00   0.00   0.00
  52   1     0.00  -0.00  -0.00     0.00  -0.00  -0.00     0.00  -0.00  -0.00
  53   1     0.00   0.00  -0.00     0.00   0.00  -0.00     0.00   0.00  -0.00
                    151                    152                    153
                        a                      a                      a 
 Frequencies --  3564.1875              3565.0314              3568.0753
 Red. masses --     2.1729                 2.1747                 2.1809
 Frc consts  --     0.0000                 0.0000                 0.0000
 IR Inten    --    12.7592                19.7773                10.6606
 Raman Activ --     0.0000                 0.0000                 0.0000
 Depolar     --     0.0000                 0.0000                 0.0000
 Atom AN      X      Y      Z        X      Y      Z        X      Y      Z
   1   8     0.00   0.00   0.00    -0.00   0.00   0.00     0.00  -0.00   0.00
   2   6    -0.00   0.00  -0.00    -0.00  -0.00  -0.00    -0.00  -0.00  -0.00
   3   1    -0.00  -0.00   0.00    -0.00   0.00   0.00    -0.00  -0.00  -0.00
   4   1     0.00  -0.00   0.00    -0.00  -0.00  -0.00     0.00   0.00  -0.00
   5   6    -0.00   0.00   0.00    -0.00   0.00   0.00    -0.00  -0.00   0.00
   6   1     0.00  -0.00  -0.00     0.00  -0.00   0.00    -0.00   0.00   0.00
   7   1     0.00   0.00   0.00    -0.00   0.00  -0.00     0.00   0.00  -0.00
   8   7    -0.00  -0.00   0.00     0.00   0.00   0.00    -0.00   0.00   0.00
   9   6    -0.00  -0.00  -0.00    -0.00   0.00   0.00     0.00   0.00  -0.00
  10   1     0.00   0.00  -0.00    -0.00   0.00   0.00    -0.00  -0.00   0.00
  11   1    -0.00   0.00   0.00    -0.00  -0.00  -0.00    -0.00  -0.00  -0.00
  12   1    -0.00  -0.00  -0.00     0.00  -0.00  -0.00     0.00   0.00  -0.00
  13   6    -0.00   0.00   0.00     0.00  -0.00  -0.00     0.00   0.00  -0.00
  14   1     0.00  -0.00  -0.00    -0.00   0.00   0.00     0.00   0.00  -0.00
  15   1    -0.00   0.00  -0.00    -0.00   0.00  -0.00     0.00   0.00  -0.00
  16   1     0.00   0.00  -0.00    -0.00   0.00   0.00    -0.00   0.00   0.00
  17   6    -0.00  -0.00  -0.00     0.00   0.00   0.00     0.00   0.00  -0.00
  18   1    -0.00  -0.00  -0.00    -0.00   0.00  -0.00     0.00   0.00  -0.00
  19   1     0.00   0.00   0.00    -0.00  -0.00  -0.00    -0.00  -0.00  -0.00
  20   1     0.00   0.00  -0.00    -0.00  -0.00   0.00    -0.00  -0.00   0.00
  21   1     0.00  -0.00  -0.00     0.00  -0.00  -0.00    -0.00   0.00   0.00
  22   6    -0.00   0.00   0.00    -0.01   0.01   0.00    -0.00   0.00   0.00
  23   8     0.00  -0.00  -0.00     0.00  -0.00  -0.00     0.00  -0.00  -0.00
  24   7    -0.00   0.00   0.00    -0.13   0.18   0.00    -0.00  -0.00   0.00
  25   1     0.00  -0.00   0.00     0.08  -0.49   0.13    -0.00   0.00  -0.00
  26   1     0.00  -0.00  -0.00     0.43  -0.19  -0.14     0.00  -0.00  -0.00
  27   7    -0.00  -0.00   0.00    -0.19  -0.03   0.05    -0.00  -0.00   0.00
  28   1     0.00  -0.00  -0.00     0.41  -0.16  -0.01     0.00  -0.00  -0.00
  29   1     0.00   0.00  -0.00     0.32   0.27  -0.18     0.00   0.00  -0.00
  30   6    -0.01  -0.00   0.00     0.00   0.00   0.00     0.00   0.00   0.00
  31   8     0.00   0.00  -0.00    -0.00  -0.00   0.00    -0.00  -0.00   0.00
  32   7    -0.02  -0.02  -0.02     0.00   0.00   0.00     0.00   0.00   0.00
  33   1    -0.00   0.01   0.02     0.00  -0.00  -0.00     0.00  -0.00  -0.00
  34   1     0.10   0.05   0.04    -0.00  -0.00  -0.00    -0.00  -0.00  -0.00
  35   7    -0.29  -0.06   0.03     0.00   0.00  -0.00     0.01   0.00  -0.00
  36   1     0.48   0.36   0.19    -0.00  -0.00  -0.00    -0.01  -0.01  -0.00
  37   1     0.63  -0.13  -0.31    -0.01   0.00   0.00    -0.02   0.00   0.01
  38   6    -0.00  -0.00   0.00    -0.00   0.00   0.00    -0.00   0.00   0.00
  39   8     0.00   0.00   0.00     0.00   0.00   0.00     0.00  -0.00  -0.00
  40   7    -0.00   0.00   0.00    -0.01   0.01   0.00     0.00   0.00   0.00
  41   1     0.00  -0.00  -0.00     0.00  -0.03  -0.01     0.00  -0.00  -0.00
  42   1     0.00  -0.00  -0.00     0.02  -0.01  -0.00     0.00   0.00   0.00
  43   7    -0.00  -0.00  -0.00    -0.02  -0.01  -0.00    -0.00  -0.00  -0.00
  44   1     0.00  -0.00  -0.00     0.03  -0.01  -0.00     0.00  -0.00  -0.00
  45   1     0.00   0.00   0.00     0.05   0.05   0.01     0.00   0.00   0.00
  46   6    -0.00  -0.00  -0.00     0.00   0.00   0.00    -0.00  -0.01  -0.01
  47   8     0.00   0.00   0.00     0.00  -0.00  -0.00     0.00   0.00   0.00
  48   7    -0.00  -0.01  -0.01     0.00   0.00   0.00    -0.09  -0.18  -0.22
  49   1     0.01   0.02   0.01    -0.00  -0.00  -0.00     0.38   0.55   0.21
  50   1    -0.00   0.00   0.02     0.00  -0.00  -0.00    -0.04   0.15   0.62
  51   7    -0.00   0.00   0.00     0.00  -0.00  -0.00     0.01  -0.00  -0.02
  52   1     0.00  -0.01  -0.01    -0.00   0.00   0.00    -0.01   0.03   0.08
  53   1     0.01   0.01  -0.00    -0.00  -0.00   0.00    -0.01  -0.01   0.01
