 Entering Gaussian System
 *********************************************
 Gaussian 98:
 frequency output generated by the xtb code
 *********************************************
                         Standard orientation:
 --------------------------------------------------------------------
  Center     Atomic     Atomic              Coordinates (Angstroms)
  Number     Number      Type              X           Y           Z
 --------------------------------------------------------------------
    1          8             0       -0.956309    0.372632   -3.340233
    2          6             0       -0.026490    1.153182   -2.645988
    3          1             0        0.954403    0.907219   -3.058516
    4          1             0       -0.203087    2.221921   -2.826334
    5          6             0       -0.050952    0.965034   -1.121359
    6          1             0       -1.053533    1.192745   -0.756721
    7          1             0        0.665758    1.662123   -0.683270
    8          7             0        0.299404   -0.391500   -0.619422
    9          6             0       -0.726907   -1.373358   -0.999144
   10          1             0       -1.673268   -1.097866   -0.537723
   11          1             0       -0.430550   -2.360317   -0.650036
   12          1             0       -0.845797   -1.383767   -2.081304
   13          6             0        0.359881   -0.316836    0.851157
   14          1             0       -0.617855   -0.038458    1.241102
   15          1             0        1.104508    0.426325    1.132847
   16          1             0        0.658964   -1.282444    1.252175
   17          6             0        1.612529   -0.814241   -1.129734
   18          1             0        2.323117   -0.005986   -0.966549
   19          1             0        1.549638   -1.050391   -2.188399
   20          1             0        1.951528   -1.689717   -0.579253
   21          1             0       -1.855104    0.671881   -3.095820
   22          6             0        3.867142    1.340640    1.001642
   23          8             0        2.772966    1.564397    0.502364
   24          7             0        4.837274    2.287775    1.051087
   25          1             0        4.596430    3.221528    0.769347
   26          1             0        5.685965    2.156514    1.570493
   27          7             0        4.184566    0.140665    1.554862
   28          1             0        5.147717   -0.067414    1.753632
   29          1             0        3.578492   -0.654925    1.370731
   30          6             0       -4.205362    0.090990   -2.163025
   31          8             0       -3.409970    1.024174   -2.314943
   32          7             0       -4.308100   -0.559814   -0.990749
   33          1             0       -3.783694   -0.196603   -0.192786
   34          1             0       -5.027765   -1.240105   -0.829078
   35          7             0       -4.982827   -0.335198   -3.180380
   36          1             0       -5.611159   -1.112159   -3.092126
   37          1             0       -4.886628    0.108988   -4.076142
   38          6             0       -2.948131    1.852906    1.075283
   39          8             0       -2.713890    0.644211    0.991091
   40          7             0       -3.165700    2.608388   -0.015109
   41          1             0       -3.249333    2.142957   -0.921186
   42          1             0       -3.432202    3.572899    0.057586
   43          7             0       -2.937475    2.487286    2.270562
   44          1             0       -3.177992    3.456706    2.363902
   45          1             0       -2.813875    1.940970    3.103771
   46          6             0        3.138950   -3.143555    2.263718
   47          8             0        2.741309   -2.396724    1.377745
   48          7             0        3.669184   -2.669611    3.418196
   49          1             0        3.603552   -1.682763    3.598543
   50          1             0        3.866886   -3.276233    4.193318
   51          7             0        3.075500   -4.490994    2.152837
   52          1             0        3.513319   -5.097280    2.822580
   53          1             0        2.819193   -4.883760    1.264234
 --------------------------------------------------------------------
     1 basis functions        1 primitive gaussians
     1 alpha electrons        1 beta electrons

 Harmonic frequencies (cm**-1), IR intensities (km*mol⁻¹),
 Raman scattering activities (A**4/amu), Raman depolarization ratios,
 reduced masses (AMU), force constants (mDyne/A) and normal coordinates:
                      1                      2                      3
                        a                      a                      a 
 Frequencies --    11.2165                17.4825                17.7148
 Red. masses --    12.1737                12.0807                11.7786
 Frc consts  --     0.0000                 0.0000                 0.0000
 IR Inten    --     0.1647                 0.9203                 0.6615
 Raman Activ --     0.0000                 0.0000                 0.0000
 Depolar     --     0.0000                 0.0000                 0.0000
 Atom AN      X      Y      Z        X      Y      Z        X      Y      Z
   1   8    -0.01  -0.02  -0.09    -0.03  -0.11  -0.02     0.02  -0.12   0.14
   2   6    -0.02  -0.01  -0.07     0.02  -0.16  -0.01    -0.00  -0.05   0.08
   3   1    -0.01   0.00  -0.02     0.00  -0.06  -0.00     0.00  -0.01   0.03
   4   1    -0.01  -0.00  -0.02     0.02  -0.04  -0.00    -0.01  -0.02   0.01
   5   6    -0.03  -0.03  -0.07    -0.01  -0.16  -0.01    -0.01   0.04   0.10
   6   1    -0.01  -0.02  -0.02    -0.00  -0.04  -0.01    -0.00   0.02   0.03
   7   1    -0.02  -0.00  -0.02     0.00  -0.05  -0.00     0.00   0.01   0.01
   8   7     0.00  -0.02  -0.08    -0.04  -0.18  -0.01    -0.03   0.06   0.18
   9   6     0.06  -0.06  -0.12    -0.04  -0.14  -0.05    -0.08   0.07   0.26
  10   1     0.01  -0.03  -0.05    -0.02  -0.04  -0.02    -0.01   0.04   0.08
  11   1     0.02  -0.01  -0.03    -0.02  -0.04  -0.02    -0.03   0.02   0.09
  12   1     0.03  -0.02  -0.04    -0.01  -0.04  -0.01    -0.03   0.00   0.08
  13   6    -0.05  -0.03  -0.07    -0.08  -0.17  -0.01     0.01   0.14   0.16
  14   1    -0.02  -0.01  -0.03    -0.03  -0.05  -0.01     0.01   0.05   0.05
  15   1    -0.02  -0.01  -0.01    -0.02  -0.05   0.00     0.01   0.04   0.03
  16   1    -0.01  -0.01  -0.02    -0.03  -0.05  -0.00     0.00   0.05   0.06
  17   6     0.04   0.04  -0.04    -0.03  -0.18   0.03    -0.06  -0.01   0.15
  18   1     0.00   0.02   0.00    -0.01  -0.05   0.01    -0.01  -0.01   0.02
  19   1     0.03   0.02  -0.01    -0.00  -0.06   0.01    -0.03  -0.02   0.05
  20   1     0.01   0.01  -0.01    -0.01  -0.05   0.02    -0.02   0.00   0.05
  21   1    -0.00  -0.01  -0.02    -0.00  -0.01  -0.01     0.00  -0.02   0.02
  22   6    -0.11   0.04   0.14    -0.17   0.04   0.03     0.07  -0.00   0.01
  23   8    -0.09   0.03   0.07    -0.20  -0.06  -0.01     0.09   0.02  -0.01
  24   7    -0.15   0.07   0.26    -0.26   0.13   0.04     0.11  -0.04  -0.04
  25   1    -0.04   0.02   0.07    -0.09   0.03   0.00     0.04  -0.01  -0.02
  26   1    -0.05   0.02   0.09    -0.07   0.06   0.02     0.03  -0.01  -0.00
  27   7    -0.14   0.04   0.15    -0.10   0.09   0.07     0.02   0.01   0.07
  28   1    -0.04   0.02   0.06    -0.03   0.05   0.03     0.00  -0.00   0.03
  29   1    -0.03   0.01   0.02    -0.01   0.01   0.02    -0.00   0.01   0.03
  30   6     0.05  -0.12   0.14    -0.05   0.19  -0.05    -0.06  -0.01  -0.08
  31   8     0.01  -0.12   0.04     0.02   0.15  -0.04    -0.06  -0.03  -0.11
  32   7     0.14  -0.05   0.20    -0.06   0.15  -0.08    -0.12   0.05  -0.06
  33   1     0.04   0.02   0.04    -0.01   0.02  -0.02    -0.03   0.02  -0.02
  34   1     0.04  -0.01   0.08    -0.03   0.06  -0.02    -0.03   0.01  -0.01
  35   7     0.03  -0.25   0.22    -0.15   0.34  -0.03    -0.03  -0.05  -0.09
  36   1     0.02  -0.07   0.08    -0.05   0.10  -0.02    -0.01  -0.01  -0.02
  37   1    -0.01  -0.08   0.05    -0.03   0.09  -0.01    -0.00  -0.02  -0.03
  38   6     0.08   0.20  -0.04     0.09   0.01  -0.01    -0.12   0.09  -0.11
  39   8     0.10   0.22   0.06     0.01  -0.00  -0.05    -0.11   0.10  -0.07
  40   7     0.03   0.11  -0.11     0.13   0.06   0.01    -0.08   0.05  -0.16
  41   1     0.00   0.01  -0.02     0.03   0.02  -0.00    -0.01   0.00  -0.04
  42   1     0.01   0.03  -0.05     0.06   0.02   0.01    -0.03   0.01  -0.06
  43   7     0.13   0.32  -0.11     0.15  -0.02   0.00    -0.19   0.14  -0.14
  44   1     0.04   0.09  -0.05     0.06  -0.00   0.01    -0.06   0.04  -0.05
  45   1     0.05   0.11  -0.02     0.03  -0.01  -0.00    -0.06   0.05  -0.03
  46   6    -0.02  -0.07  -0.11     0.18   0.00   0.05     0.14  -0.10  -0.06
  47   8    -0.03  -0.02  -0.07     0.11  -0.02   0.08    -0.01   0.01   0.11
  48   7    -0.12  -0.15  -0.04     0.15   0.03   0.06     0.27  -0.27  -0.06
  49   1    -0.06  -0.05   0.02     0.00   0.00   0.03     0.05  -0.08   0.03
  50   1    -0.03  -0.06  -0.02     0.06   0.01   0.01     0.10  -0.10  -0.05
  51   7     0.09  -0.07  -0.25     0.36  -0.00   0.01     0.23  -0.10  -0.29
  52   1     0.02  -0.03  -0.08     0.12   0.01  -0.00     0.09  -0.05  -0.12
  53   1     0.04  -0.00  -0.08     0.11  -0.00  -0.00     0.04   0.01  -0.09
                      4                      5                      6
                        a                      a                      a 
 Frequencies --    26.4331                31.8897                34.7705
 Red. masses --    11.9546                12.4907                11.8442
 Frc consts  --     0.0000                 0.0000                 0.0000
 IR Inten    --     1.0996                 0.5740                 0.7501
 Raman Activ --     0.0000                 0.0000                 0.0000
 Depolar     --     0.0000                 0.0000                 0.0000
 Atom AN      X      Y      Z        X      Y      Z        X      Y      Z
   1   8    -0.09  -0.16  -0.02     0.14   0.06  -0.06    -0.02   0.12   0.05
   2   6    -0.02  -0.10  -0.13     0.10   0.02   0.00    -0.03   0.09   0.08
   3   1    -0.01  -0.05  -0.05     0.03  -0.00   0.02    -0.01   0.04   0.02
   4   1    -0.00  -0.03  -0.06     0.04   0.01  -0.00    -0.01   0.03   0.04
   5   6     0.06   0.03  -0.11     0.01   0.01   0.00    -0.01   0.01   0.07
   6   1     0.02   0.02  -0.02    -0.00   0.02  -0.02    -0.00  -0.00   0.03
   7   1     0.02   0.02  -0.06     0.01  -0.01   0.01    -0.00  -0.00   0.03
   8   7     0.08   0.07  -0.02    -0.10  -0.01   0.01     0.00  -0.02  -0.00
   9   6     0.06   0.04   0.10    -0.15   0.06   0.01    -0.01   0.00  -0.03
  10   1     0.02   0.02   0.03    -0.04   0.03  -0.00     0.00  -0.00  -0.00
  11   1     0.02   0.02   0.05    -0.06   0.01   0.00    -0.00  -0.00  -0.03
  12   1     0.00  -0.01   0.03    -0.04   0.02   0.00    -0.01   0.02  -0.01
  13   6     0.12   0.18  -0.02    -0.10  -0.01   0.01     0.02  -0.08  -0.00
  14   1     0.03   0.05  -0.00    -0.03   0.01   0.00     0.01  -0.02   0.01
  15   1     0.03   0.06  -0.03    -0.02  -0.01   0.00     0.01  -0.03   0.00
  16   1     0.05   0.06   0.01    -0.04  -0.01   0.01     0.00  -0.03  -0.01
  17   6     0.06   0.03  -0.02    -0.12  -0.10   0.03    -0.01   0.00  -0.04
  18   1     0.02   0.01  -0.02    -0.02  -0.04  -0.00    -0.00  -0.00  -0.00
  19   1     0.01  -0.01  -0.00    -0.04  -0.04   0.01    -0.01   0.02  -0.02
  20   1     0.02   0.02   0.01    -0.05  -0.03   0.02    -0.00  -0.01  -0.03
  21   1    -0.02  -0.03   0.00     0.03   0.01  -0.01    -0.01   0.03   0.01
  22   6     0.07   0.08  -0.02    -0.10   0.01  -0.15     0.08  -0.13  -0.01
  23   8     0.18   0.09  -0.24    -0.12  -0.02  -0.16     0.08  -0.12   0.03
  24   7     0.12   0.04   0.03    -0.08  -0.01  -0.29     0.10  -0.15  -0.00
  25   1     0.06   0.01  -0.04    -0.02  -0.01  -0.10     0.03  -0.04   0.01
  26   1     0.01   0.02   0.05    -0.02   0.01  -0.08     0.03  -0.05  -0.01
  27   7    -0.08   0.14   0.18    -0.11   0.06  -0.06     0.09  -0.16  -0.07
  28   1    -0.04   0.03   0.11    -0.03   0.02  -0.01     0.02  -0.05  -0.02
  29   1    -0.02   0.04   0.05    -0.03   0.01   0.01     0.02  -0.04  -0.03
  30   6    -0.08   0.03   0.01     0.20  -0.01   0.02    -0.03   0.00   0.00
  31   8    -0.04  -0.01   0.02     0.23   0.00   0.12    -0.08   0.04  -0.03
  32   7    -0.09  -0.00  -0.01    -0.03   0.09   0.05     0.07  -0.02  -0.00
  33   1    -0.01  -0.02  -0.00    -0.03   0.02   0.03     0.02   0.00  -0.00
  34   1    -0.03   0.00  -0.01     0.00   0.01  -0.02     0.02  -0.01   0.01
  35   7    -0.14   0.11   0.02     0.48  -0.15  -0.13    -0.09  -0.00   0.05
  36   1    -0.04   0.03   0.00     0.11  -0.02  -0.05    -0.01  -0.01   0.02
  37   1    -0.04   0.03   0.01     0.16  -0.04  -0.03    -0.04  -0.00   0.01
  38   6     0.07  -0.12   0.03    -0.04   0.01   0.13    -0.09   0.06  -0.03
  39   8     0.05  -0.15  -0.01    -0.11   0.00   0.16     0.02   0.10  -0.03
  40   7     0.07  -0.10   0.06     0.02   0.02   0.14    -0.10   0.06  -0.05
  41   1     0.01  -0.02   0.01     0.01   0.01   0.04    -0.01   0.01  -0.01
  42   1     0.03  -0.02   0.02     0.03   0.01   0.03    -0.06   0.01  -0.01
  43   7     0.14  -0.17   0.05    -0.02   0.02   0.14    -0.26   0.06  -0.03
  44   1     0.03  -0.05   0.02    -0.00   0.01   0.04    -0.08   0.01  -0.01
  45   1     0.03  -0.05   0.01    -0.03   0.00   0.04    -0.05   0.02  -0.01
  46   6    -0.11  -0.00   0.02    -0.03  -0.01   0.01     0.06   0.02   0.01
  47   8    -0.07   0.11   0.09    -0.09   0.03   0.07     0.11  -0.13  -0.13
  48   7    -0.41  -0.13   0.21    -0.15  -0.05   0.09    -0.40   0.22   0.15
  49   1    -0.15  -0.05   0.10    -0.08  -0.02   0.05    -0.18   0.06   0.02
  50   1    -0.12  -0.06   0.04    -0.03  -0.03   0.01    -0.11   0.08   0.06
  51   7     0.10   0.01  -0.23     0.17  -0.01  -0.13     0.50   0.00   0.04
  52   1     0.01  -0.01  -0.07     0.06  -0.00  -0.04     0.12   0.04   0.05
  53   1     0.08   0.03  -0.09     0.07   0.01  -0.05     0.22  -0.03  -0.00
                      7                      8                      9
                        a                      a                      a 
 Frequencies --    40.8549                44.8264                49.4908
 Red. masses --    12.5191                12.0718                12.6713
 Frc consts  --     0.0000                 0.0000                 0.0000
 IR Inten    --     0.7489                 0.7622                 5.1763
 Raman Activ --     0.0000                 0.0000                 0.0000
 Depolar     --     0.0000                 0.0000                 0.0000
 Atom AN      X      Y      Z        X      Y      Z        X      Y      Z
   1   8    -0.03   0.12   0.10     0.08   0.05   0.15    -0.12   0.13  -0.02
   2   6    -0.05   0.11   0.11     0.02   0.04   0.20    -0.05   0.05  -0.01
   3   1    -0.01   0.04   0.03     0.01   0.03   0.06    -0.02   0.00  -0.01
   4   1    -0.02   0.03   0.04    -0.01   0.01   0.07     0.00   0.02   0.01
   5   6    -0.04   0.07   0.11    -0.00  -0.06   0.18    -0.04   0.00  -0.01
   6   1    -0.01   0.02   0.03    -0.00  -0.03   0.05    -0.01  -0.01  -0.00
   7   1    -0.01   0.01   0.03    -0.01  -0.02   0.07    -0.02   0.00   0.00
   8   7    -0.06   0.05   0.07     0.03  -0.08   0.11     0.01   0.00  -0.05
   9   6    -0.10   0.09   0.09     0.06  -0.08   0.04     0.08  -0.04  -0.13
  10   1    -0.02   0.03   0.04     0.01  -0.04   0.02     0.01  -0.03  -0.04
  11   1    -0.04   0.02   0.02     0.02  -0.03  -0.01     0.04  -0.01  -0.05
  12   1    -0.04   0.03   0.03     0.02  -0.00   0.01     0.03   0.00  -0.04
  13   6    -0.01   0.01   0.07     0.03  -0.16   0.11    -0.05  -0.04  -0.04
  14   1     0.00   0.00   0.03     0.01  -0.05   0.03    -0.02  -0.02  -0.02
  15   1     0.00   0.00   0.02     0.01  -0.05   0.04    -0.02  -0.01   0.00
  16   1     0.00  -0.00   0.01     0.01  -0.05   0.02    -0.01  -0.01  -0.02
  17   6    -0.09   0.03   0.01     0.04  -0.01   0.07     0.06   0.07   0.00
  18   1    -0.02   0.00   0.00     0.00   0.00   0.02     0.00   0.03   0.01
  19   1    -0.04   0.02   0.00     0.01   0.00   0.02     0.03   0.02  -0.00
  20   1    -0.03   0.00  -0.01     0.03  -0.00   0.01     0.02   0.02   0.00
  21   1    -0.01   0.02   0.02     0.02   0.01   0.02    -0.02   0.05  -0.00
  22   6    -0.01  -0.03   0.04    -0.02   0.11  -0.09    -0.02  -0.03  -0.03
  23   8    -0.02  -0.00   0.09    -0.15   0.03   0.14    -0.03   0.01   0.01
  24   7    -0.01  -0.04   0.08    -0.09   0.20  -0.32     0.10  -0.14  -0.26
  25   1    -0.00  -0.01   0.04    -0.06   0.05  -0.07     0.04  -0.04  -0.09
  26   1     0.00  -0.02   0.01     0.01   0.07  -0.13     0.02  -0.04  -0.07
  27   7     0.01  -0.07  -0.04     0.19   0.15  -0.16    -0.12   0.01   0.13
  28   1     0.00  -0.02  -0.02     0.06   0.06  -0.08    -0.03  -0.01   0.03
  29   1     0.00  -0.02  -0.02     0.06   0.03  -0.01    -0.05   0.01   0.07
  30   6    -0.09  -0.06  -0.08    -0.00  -0.00  -0.03     0.04   0.01  -0.04
  31   8    -0.13  -0.03  -0.06    -0.03   0.01  -0.07    -0.14   0.17  -0.04
  32   7    -0.21   0.02  -0.06     0.12  -0.07  -0.05     0.32  -0.15  -0.11
  33   1    -0.06   0.00  -0.01     0.03  -0.01  -0.02     0.07  -0.01  -0.03
  34   1    -0.04  -0.02  -0.03     0.03  -0.01  -0.00     0.10  -0.06  -0.02
  35   7     0.07  -0.19  -0.16    -0.10   0.04   0.02    -0.03   0.01   0.01
  36   1     0.01  -0.04  -0.04    -0.01  -0.00   0.01     0.05  -0.04  -0.01
  37   1     0.02  -0.05  -0.04    -0.04   0.01   0.01    -0.04   0.02   0.01
  38   6     0.14  -0.05  -0.06     0.03   0.02  -0.06    -0.03   0.03   0.01
  39   8    -0.08  -0.11  -0.05     0.05   0.02  -0.05     0.10   0.07  -0.08
  40   7    -0.04  -0.10  -0.05     0.01  -0.00  -0.07    -0.44   0.02   0.09
  41   1    -0.04  -0.03  -0.01     0.00  -0.00  -0.02    -0.10   0.02   0.01
  42   1     0.07  -0.00  -0.02     0.01  -0.00  -0.02    -0.10   0.01   0.04
  43   7     0.68   0.04  -0.11     0.05   0.04  -0.07     0.23   0.01   0.02
  44   1     0.15   0.00  -0.03     0.01   0.01  -0.02    -0.01  -0.02   0.03
  45   1     0.15   0.01  -0.03     0.02   0.01  -0.02     0.09  -0.01  -0.01
  46   6     0.01   0.02  -0.02    -0.06  -0.04  -0.02     0.01  -0.03   0.14
  47   8    -0.01  -0.04  -0.08     0.26   0.08  -0.05    -0.17   0.03   0.29
  48   7    -0.08   0.12  -0.02    -0.28  -0.22   0.15     0.15  -0.12   0.12
  49   1    -0.04   0.03  -0.02    -0.03  -0.06   0.05     0.02  -0.04   0.07
  50   1    -0.02   0.04   0.00    -0.13  -0.08   0.03     0.07  -0.05   0.01
  51   7     0.12   0.02   0.03    -0.23  -0.03  -0.14     0.10  -0.03   0.02
  52   1     0.03   0.02   0.02    -0.12  -0.04  -0.03     0.05  -0.02  -0.02
  53   1     0.05  -0.01   0.01    -0.01   0.02  -0.07    -0.01   0.01   0.01
                     10                     11                     12
                        a                      a                      a 
 Frequencies --    53.3190                59.6853                66.2958
 Red. masses --    12.7377                12.8944                12.8785
 Frc consts  --     0.0000                 0.0000                 0.0000
 IR Inten    --     3.2828                 3.8257                 8.1993
 Raman Activ --     0.0000                 0.0000                 0.0000
 Depolar     --     0.0000                 0.0000                 0.0000
 Atom AN      X      Y      Z        X      Y      Z        X      Y      Z
   1   8    -0.13  -0.23   0.05    -0.09   0.31   0.07     0.11   0.04  -0.19
   2   6    -0.07  -0.19  -0.04     0.01   0.15   0.07     0.05   0.03  -0.11
   3   1    -0.03  -0.07  -0.01    -0.01   0.03   0.00     0.02   0.01  -0.02
   4   1    -0.01  -0.06  -0.03     0.02   0.05   0.05     0.01   0.01  -0.03
   5   6    -0.03  -0.09  -0.03     0.10   0.04   0.06    -0.02   0.00  -0.11
   6   1    -0.01  -0.03  -0.01     0.04   0.04   0.05    -0.01  -0.00  -0.05
   7   1    -0.01  -0.02  -0.02     0.06  -0.02   0.01    -0.01   0.00  -0.02
   8   7    -0.01  -0.07   0.04    -0.01  -0.03  -0.06    -0.04  -0.00  -0.12
   9   6    -0.02  -0.09   0.15    -0.14   0.10  -0.06    -0.01   0.01  -0.19
  10   1     0.00  -0.02   0.06    -0.02   0.05   0.00    -0.01   0.00  -0.08
  11   1     0.00  -0.02   0.05    -0.07   0.01  -0.04    -0.01   0.00  -0.05
  12   1    -0.03  -0.04   0.05    -0.06   0.06  -0.02     0.02   0.00  -0.06
  13   6     0.07   0.03   0.03     0.07  -0.13  -0.05    -0.11  -0.03  -0.11
  14   1     0.03   0.03   0.02     0.03  -0.02   0.01    -0.03   0.00  -0.04
  15   1     0.03   0.01  -0.01     0.04  -0.06  -0.01    -0.02  -0.02  -0.02
  16   1     0.01   0.01   0.02     0.00  -0.05  -0.03    -0.05  -0.01  -0.03
  17   6    -0.03  -0.09   0.01    -0.08  -0.13  -0.14     0.00   0.02  -0.03
  18   1    -0.01  -0.02  -0.02     0.00  -0.06  -0.04    -0.00   0.00   0.01
  19   1    -0.02  -0.04   0.01    -0.04  -0.02  -0.04     0.02   0.01  -0.01
  20   1     0.00  -0.02   0.01    -0.04  -0.05  -0.06    -0.01   0.00  -0.01
  21   1    -0.03  -0.03   0.00    -0.02   0.09   0.03     0.02  -0.02  -0.03
  22   6     0.06   0.02   0.01     0.03  -0.02  -0.05     0.12  -0.05   0.09
  23   8     0.12  -0.07  -0.14     0.16  -0.23  -0.43     0.07  -0.17   0.20
  24   7    -0.06   0.14   0.24    -0.10   0.10   0.09     0.07   0.02  -0.06
  25   1    -0.03   0.03   0.07    -0.03   0.00  -0.05    -0.01  -0.00  -0.01
  26   1    -0.02   0.05   0.08    -0.06   0.07   0.09     0.03   0.03  -0.03
  27   7     0.13   0.02  -0.04    -0.01   0.11   0.25     0.27   0.00   0.12
  28   1     0.03   0.03   0.01    -0.01   0.06   0.14     0.08   0.02   0.01
  29   1     0.06  -0.01  -0.04     0.04   0.00   0.04     0.08  -0.01   0.05
  30   6     0.09   0.08  -0.05    -0.07  -0.03   0.00    -0.08  -0.00   0.06
  31   8    -0.01   0.20  -0.01    -0.21   0.07  -0.01     0.14  -0.20   0.06
  32   7     0.10   0.09  -0.06    -0.03  -0.00   0.02    -0.37   0.17   0.13
  33   1     0.01   0.03  -0.01    -0.01   0.01   0.00    -0.08   0.02   0.03
  34   1     0.05  -0.01  -0.03     0.02  -0.03   0.00    -0.13   0.08   0.03
  35   7     0.23  -0.03  -0.12     0.02  -0.18  -0.01    -0.05   0.05   0.02
  36   1     0.08  -0.02  -0.04     0.02  -0.06   0.00    -0.08   0.06   0.01
  37   1     0.06   0.00  -0.03    -0.01  -0.04  -0.00     0.03  -0.01  -0.00
  38   6    -0.09   0.07   0.06     0.02   0.01  -0.03    -0.11  -0.00   0.01
  39   8     0.07   0.12  -0.03     0.05   0.01  -0.04    -0.11   0.00   0.02
  40   7    -0.47   0.07   0.14     0.11   0.02  -0.05    -0.34  -0.05   0.02
  41   1    -0.08   0.04   0.03     0.01  -0.00  -0.01    -0.06  -0.01   0.00
  42   1    -0.11   0.02   0.05    -0.00  -0.00  -0.01    -0.06  -0.00  -0.00
  43   7     0.09   0.04   0.08    -0.09  -0.01  -0.03     0.08   0.05  -0.01
  44   1    -0.07  -0.01   0.05    -0.01   0.00  -0.01    -0.02   0.00  -0.00
  45   1     0.04  -0.00   0.01    -0.02  -0.00  -0.01     0.02   0.02  -0.00
  46   6     0.01   0.00  -0.08     0.07  -0.03   0.08     0.08   0.03   0.06
  47   8     0.20  -0.03  -0.20     0.22   0.02   0.08     0.24   0.13   0.08
  48   7    -0.09   0.04  -0.06     0.10  -0.11   0.11     0.02  -0.10   0.14
  49   1     0.00   0.02  -0.04     0.05  -0.03   0.03     0.03  -0.03   0.06
  50   1    -0.06   0.02   0.00    -0.01  -0.04   0.03    -0.02  -0.05   0.03
  51   7    -0.12  -0.00   0.01    -0.11  -0.02   0.09    -0.02   0.04  -0.04
  52   1    -0.06   0.00   0.02    -0.05  -0.02   0.02    -0.03  -0.01  -0.01
  53   1    -0.01  -0.01  -0.00    -0.02   0.00   0.02     0.01   0.03  -0.03
                     13                     14                     15
                        a                      a                      a 
 Frequencies --    68.1629                79.1136                80.6352
 Red. masses --    13.3365                12.8465                12.1797
 Frc consts  --     0.0000                 0.0000                 0.0000
 IR Inten    --     8.5397                 1.2410                 2.0858
 Raman Activ --     0.0000                 0.0000                 0.0000
 Depolar     --     0.0000                 0.0000                 0.0000
 Atom AN      X      Y      Z        X      Y      Z        X      Y      Z
   1   8     0.37   0.05  -0.01     0.01  -0.00  -0.07    -0.06   0.09  -0.07
   2   6     0.21   0.10   0.10     0.03  -0.04  -0.05     0.07  -0.01  -0.14
   3   1     0.08   0.05   0.05     0.01  -0.04  -0.00     0.01  -0.05  -0.05
   4   1     0.04   0.03   0.03     0.03  -0.01  -0.03     0.06   0.00  -0.06
   5   6     0.10   0.04   0.09    -0.04   0.01  -0.05     0.11   0.09  -0.12
   6   1     0.03   0.02   0.01    -0.01   0.03  -0.03     0.04   0.06  -0.03
   7   1     0.03   0.00   0.04    -0.00  -0.01  -0.01     0.05   0.02  -0.05
   8   7     0.02   0.01   0.06    -0.16   0.01   0.02    -0.00   0.10  -0.04
   9   6    -0.05   0.08   0.08    -0.19   0.05   0.02    -0.06   0.15  -0.02
  10   1    -0.01   0.04   0.03    -0.05   0.03   0.00    -0.02   0.07  -0.02
  11   1    -0.03   0.02   0.02    -0.07   0.01   0.01    -0.04   0.04   0.01
  12   1    -0.02   0.02   0.02    -0.05   0.01   0.01    -0.01   0.03  -0.01
  13   6     0.06  -0.01   0.05    -0.17   0.06   0.01    -0.04   0.16  -0.04
  14   1     0.02   0.01   0.02    -0.05   0.04  -0.00    -0.01   0.05  -0.02
  15   1     0.03  -0.01   0.01    -0.03   0.00   0.00    -0.01   0.05  -0.01
  16   1     0.01  -0.01   0.01    -0.07   0.01   0.02    -0.02   0.05   0.00
  17   6    -0.03  -0.08  -0.00    -0.16  -0.09   0.07    -0.01  -0.02   0.03
  18   1     0.01  -0.03  -0.01    -0.03  -0.04   0.02     0.01  -0.02   0.01
  19   1    -0.03  -0.02  -0.00    -0.04  -0.03   0.02     0.00  -0.02   0.01
  20   1    -0.02  -0.03  -0.01    -0.06  -0.03   0.03    -0.03  -0.01   0.03
  21   1     0.08  -0.02  -0.01     0.01   0.01  -0.02    -0.00   0.04   0.00
  22   6    -0.08   0.02  -0.10     0.10  -0.08   0.06     0.00   0.04  -0.08
  23   8     0.01   0.03  -0.32     0.10  -0.22   0.03    -0.05   0.04   0.01
  24   7    -0.10   0.02   0.08     0.03  -0.00   0.04    -0.17   0.20   0.23
  25   1    -0.01   0.00  -0.00    -0.01  -0.01   0.00    -0.08   0.06   0.12
  26   1    -0.04   0.00   0.05     0.01   0.02   0.02    -0.02   0.04   0.02
  27   7    -0.19   0.02  -0.04     0.19  -0.04   0.12     0.22  -0.08  -0.52
  28   1    -0.06   0.00   0.03     0.05   0.01   0.03     0.06  -0.00  -0.13
  29   1    -0.04   0.00  -0.04     0.06  -0.02   0.03     0.05  -0.02  -0.11
  30   6     0.03  -0.04   0.04     0.08  -0.06  -0.03    -0.02  -0.03   0.01
  31   8     0.25  -0.23  -0.01     0.03  -0.01   0.02    -0.07   0.02   0.02
  32   7     0.05  -0.09   0.02     0.38  -0.36  -0.16     0.07  -0.10  -0.02
  33   1     0.02  -0.03   0.00     0.05  -0.06  -0.02     0.01  -0.02  -0.00
  34   1    -0.04   0.04   0.03     0.07  -0.06  -0.04     0.02  -0.03  -0.00
  35   7    -0.25   0.24   0.15    -0.12   0.16   0.04    -0.05  -0.01   0.03
  36   1    -0.07   0.07   0.04     0.03  -0.02  -0.02     0.01  -0.02   0.00
  37   1    -0.04   0.04   0.03    -0.04   0.06   0.02    -0.02  -0.00   0.01
  38   6    -0.06  -0.02  -0.02    -0.04   0.00   0.05    -0.01  -0.01   0.01
  39   8     0.05  -0.00   0.02    -0.28  -0.04   0.15    -0.04  -0.01   0.01
  40   7    -0.36  -0.12  -0.02     0.13  -0.02   0.00    -0.00  -0.00   0.01
  41   1    -0.04  -0.03  -0.01     0.02  -0.01   0.01    -0.01  -0.00   0.00
  42   1    -0.07  -0.02  -0.02     0.09   0.01  -0.02    -0.00  -0.00   0.00
  43   7     0.11   0.07  -0.06     0.10   0.10   0.01     0.01  -0.01   0.01
  44   1    -0.06  -0.00  -0.02     0.04   0.03  -0.01     0.00  -0.00   0.00
  45   1     0.02   0.02  -0.01    -0.03   0.03   0.01    -0.00  -0.00   0.00
  46   6    -0.03  -0.03  -0.04     0.00   0.13  -0.06     0.01  -0.14   0.15
  47   8    -0.08  -0.10  -0.07     0.03   0.20  -0.04    -0.05  -0.13   0.24
  48   7    -0.00   0.05  -0.09    -0.01   0.08  -0.04     0.03  -0.20   0.18
  49   1    -0.01   0.02  -0.04     0.01   0.02  -0.00    -0.01  -0.06   0.07
  50   1     0.00   0.03  -0.01    -0.01   0.01  -0.02     0.01  -0.06   0.04
  51   7    -0.01  -0.04   0.05    -0.03   0.15  -0.14     0.10  -0.16   0.10
  52   1     0.01   0.00   0.02    -0.02   0.03  -0.04     0.04  -0.04   0.02
  53   1    -0.01  -0.03   0.02    -0.01   0.06  -0.04     0.02  -0.03   0.02
                     16                     17                     18
                        a                      a                      a 
 Frequencies --    93.0872                95.2431               108.8831
 Red. masses --    13.0409                11.8803                11.7017
 Frc consts  --     0.0000                 0.0000                 0.0000
 IR Inten    --     4.8630                 0.1941                23.8481
 Raman Activ --     0.0000                 0.0000                 0.0000
 Depolar     --     0.0000                 0.0000                 0.0000
 Atom AN      X      Y      Z        X      Y      Z        X      Y      Z
   1   8     0.04   0.07   0.05    -0.04   0.04  -0.03    -0.08   0.13   0.11
   2   6     0.14  -0.05   0.03     0.17  -0.09  -0.16     0.22  -0.12  -0.03
   3   1     0.03  -0.05   0.00     0.03  -0.10  -0.06     0.03  -0.12  -0.04
   4   1     0.08  -0.01   0.01     0.11  -0.02  -0.08     0.15  -0.02  -0.02
   5   6     0.15  -0.05   0.02     0.21   0.10  -0.13     0.33  -0.06  -0.02
   6   1     0.05   0.02   0.01     0.08   0.09  -0.03     0.11   0.03   0.02
   7   1     0.07  -0.04   0.00     0.10   0.01  -0.07     0.13  -0.04  -0.03
   8   7     0.00  -0.10   0.02    -0.00   0.10   0.01     0.20  -0.09   0.01
   9   6    -0.11   0.02   0.02    -0.15   0.21   0.09     0.19  -0.03  -0.13
  10   1    -0.02   0.04   0.01    -0.03   0.12   0.02     0.04   0.00  -0.08
  11   1    -0.06  -0.00   0.01    -0.09   0.06   0.05     0.03  -0.01  -0.03
  12   1    -0.03   0.01   0.01    -0.04   0.04   0.03     0.09  -0.01  -0.04
  13   6     0.01  -0.10   0.01    -0.02   0.20   0.00    -0.00  -0.09   0.02
  14   1     0.01  -0.00   0.00    -0.00   0.09  -0.01    -0.02  -0.03  -0.03
  15   1     0.02  -0.05   0.00     0.01   0.05  -0.01    -0.01  -0.02   0.03
  16   1    -0.02  -0.03   0.00    -0.03   0.06   0.02    -0.01  -0.02   0.02
  17   6    -0.05  -0.23   0.01    -0.06  -0.15   0.06     0.23  -0.14   0.16
  18   1     0.01  -0.09  -0.00     0.02  -0.07  -0.01     0.07  -0.05   0.06
  19   1    -0.02  -0.07   0.00    -0.02  -0.08   0.03     0.10  -0.05   0.05
  20   1    -0.04  -0.07   0.01    -0.05  -0.04   0.05     0.04  -0.04   0.06
  21   1     0.02   0.04   0.02     0.01   0.05   0.01     0.00   0.08   0.06
  22   6     0.03  -0.04   0.05    -0.12   0.00   0.10     0.01   0.04  -0.02
  23   8    -0.02  -0.10   0.14    -0.20   0.07   0.29     0.02   0.07  -0.03
  24   7    -0.04   0.02   0.08    -0.01  -0.10  -0.21     0.04   0.01  -0.02
  25   1    -0.03   0.01   0.04     0.00  -0.02  -0.05     0.02   0.00  -0.01
  26   1     0.00   0.01   0.00     0.01  -0.03  -0.07     0.01  -0.00  -0.00
  27   7     0.15  -0.07  -0.09    -0.16   0.03   0.20    -0.03   0.03  -0.01
  28   1     0.04  -0.02  -0.04    -0.03  -0.00   0.00    -0.01   0.00  -0.00
  29   1     0.02  -0.01  -0.00    -0.04   0.00   0.05    -0.01   0.01  -0.01
  30   6    -0.03   0.01   0.03    -0.02  -0.02   0.03    -0.11   0.02  -0.02
  31   8    -0.06   0.03  -0.03    -0.09   0.03   0.01    -0.21   0.10  -0.02
  32   7    -0.03   0.11   0.09     0.05  -0.04   0.02    -0.09   0.04  -0.01
  33   1     0.02   0.02   0.01     0.01  -0.01   0.00    -0.04   0.02   0.00
  34   1     0.01   0.01   0.03     0.03  -0.02   0.01    -0.01  -0.01  -0.01
  35   7    -0.00  -0.10   0.07    -0.04  -0.05   0.06    -0.04  -0.08  -0.04
  36   1    -0.01  -0.02   0.04     0.01  -0.03   0.02     0.01  -0.03  -0.01
  37   1    -0.02  -0.03   0.01    -0.02  -0.02   0.01    -0.01  -0.02  -0.01
  38   6     0.09  -0.03  -0.07     0.04  -0.02  -0.03    -0.15   0.01   0.08
  39   8     0.37   0.02  -0.19     0.18   0.00  -0.10    -0.36  -0.04   0.25
  40   7    -0.08   0.00  -0.01    -0.04   0.00   0.01    -0.07  -0.08   0.01
  41   1    -0.01   0.01  -0.01    -0.01   0.00   0.00    -0.03  -0.04   0.01
  42   1    -0.09  -0.02   0.02    -0.05  -0.01   0.02     0.04  -0.01  -0.03
  43   7    -0.07  -0.16  -0.01    -0.03  -0.09   0.01     0.03   0.18   0.00
  44   1    -0.02  -0.05   0.02    -0.01  -0.03   0.02    -0.02   0.05  -0.03
  45   1     0.06  -0.05  -0.02     0.03  -0.03  -0.01    -0.06   0.06   0.02
  46   6    -0.13   0.18  -0.04     0.09  -0.06  -0.06    -0.05   0.02  -0.06
  47   8    -0.37   0.29   0.12     0.32  -0.12  -0.21    -0.10  -0.01  -0.08
  48   7    -0.01   0.11  -0.07    -0.04   0.01  -0.03    -0.03   0.07  -0.10
  49   1    -0.02   0.02   0.02     0.02   0.01  -0.04    -0.02   0.02  -0.03
  50   1     0.05   0.01  -0.05    -0.05   0.02   0.01     0.00   0.03  -0.02
  51   7     0.00   0.21  -0.23    -0.03  -0.07   0.08    -0.01   0.02  -0.04
  52   1     0.03   0.04  -0.10    -0.04  -0.01   0.05    -0.00   0.01  -0.01
  53   1    -0.04   0.08  -0.06     0.02  -0.04   0.02    -0.01  -0.00  -0.00
                     19                     20                     21
                        a                      a                      a 
 Frequencies --   120.5421               128.8589               133.0262
 Red. masses --    12.9099                10.6723                12.9096
 Frc consts  --     0.0000                 0.0000                 0.0000
 IR Inten    --     0.8176                14.8130                 8.9016
 Raman Activ --     0.0000                 0.0000                 0.0000
 Depolar     --     0.0000                 0.0000                 0.0000
 Atom AN      X      Y      Z        X      Y      Z        X      Y      Z
   1   8    -0.08   0.08   0.06    -0.08  -0.06   0.10     0.00   0.05  -0.07
   2   6     0.04  -0.04   0.03    -0.08   0.04  -0.00    -0.01   0.00   0.00
   3   1    -0.00  -0.05   0.00    -0.03   0.05  -0.04     0.00   0.00   0.01
   4   1     0.05  -0.01   0.01    -0.06   0.01   0.01     0.00   0.00   0.01
   5   6     0.04  -0.03   0.02     0.12  -0.01  -0.00    -0.05  -0.06  -0.01
   6   1     0.01  -0.00   0.00     0.05   0.01   0.04    -0.01  -0.01  -0.00
   7   1     0.01  -0.01   0.01     0.06  -0.02  -0.02    -0.01  -0.03   0.01
   8   7     0.02  -0.03   0.04     0.13  -0.06  -0.12    -0.10  -0.09  -0.04
   9   6     0.06  -0.03  -0.07    -0.06   0.04   0.11    -0.17  -0.02  -0.02
  10   1    -0.00   0.00  -0.06     0.02   0.05   0.08    -0.04   0.00   0.01
  11   1    -0.00  -0.01   0.00    -0.03   0.01   0.03    -0.06  -0.01  -0.02
  12   1     0.06  -0.02  -0.02    -0.08   0.01   0.04    -0.06   0.01  -0.00
  13   6    -0.11  -0.03   0.04     0.42  -0.09  -0.12    -0.02  -0.11  -0.04
  14   1    -0.04  -0.01  -0.01     0.15  -0.02   0.02     0.00  -0.02   0.00
  15   1    -0.04  -0.01   0.03     0.14  -0.03  -0.07     0.01  -0.04  -0.02
  16   1    -0.04  -0.01   0.02     0.14  -0.03  -0.06    -0.01  -0.04  -0.02
  17   6     0.07  -0.01   0.15    -0.03  -0.16  -0.41    -0.13  -0.14  -0.08
  18   1     0.01   0.00   0.06     0.02  -0.07  -0.16    -0.02  -0.05  -0.03
  19   1     0.05  -0.00   0.04    -0.08  -0.04  -0.12    -0.05  -0.03  -0.02
  20   1     0.01  -0.00   0.05     0.01  -0.06  -0.14    -0.04  -0.05  -0.03
  21   1    -0.01   0.01   0.06    -0.02  -0.03   0.04     0.00   0.01  -0.02
  22   6     0.04   0.03  -0.03    -0.06   0.01   0.07     0.18   0.25   0.08
  23   8     0.07   0.03  -0.09    -0.12   0.10   0.23     0.16   0.21   0.16
  24   7     0.04   0.04   0.00     0.00  -0.05  -0.00     0.21   0.26  -0.09
  25   1     0.02   0.01  -0.01     0.00  -0.00   0.03     0.04   0.07  -0.03
  26   1     0.00   0.01   0.01     0.01  -0.03  -0.02     0.06   0.09  -0.02
  27   7     0.01   0.04   0.01    -0.05  -0.03  -0.03     0.22   0.29   0.18
  28   1     0.00   0.01   0.01    -0.01  -0.02  -0.03     0.06   0.07   0.02
  29   1     0.01   0.01  -0.01    -0.03  -0.00   0.01     0.06   0.08   0.04
  30   6    -0.03  -0.12   0.09     0.01  -0.05   0.00     0.01   0.00  -0.01
  31   8     0.03  -0.16   0.40     0.07  -0.08   0.14     0.01   0.00  -0.03
  32   7    -0.19  -0.35  -0.03    -0.04  -0.18  -0.07     0.03   0.01  -0.00
  33   1    -0.08  -0.09   0.01    -0.04  -0.04  -0.00     0.01   0.01  -0.00
  34   1    -0.09  -0.06  -0.04    -0.04  -0.03  -0.04     0.01   0.01   0.00
  35   7     0.05   0.13  -0.08     0.03   0.12  -0.08    -0.01  -0.00   0.01
  36   1     0.04   0.00  -0.10     0.02   0.02  -0.06    -0.00   0.00   0.01
  37   1     0.09   0.05  -0.01     0.04   0.05  -0.01    -0.01  -0.00   0.00
  38   6     0.00   0.12  -0.11    -0.08   0.07   0.02     0.00  -0.01   0.01
  39   8    -0.04   0.16  -0.40    -0.20   0.06   0.03     0.01  -0.01   0.03
  40   7     0.03   0.36   0.04    -0.04   0.09   0.02    -0.00  -0.03  -0.00
  41   1    -0.02   0.11   0.01    -0.01   0.02   0.01     0.00  -0.01  -0.00
  42   1    -0.01   0.09   0.05     0.02   0.03  -0.00    -0.00  -0.01  -0.00
  43   7     0.04  -0.13   0.02     0.01   0.12   0.00    -0.01   0.01  -0.00
  44   1     0.04  -0.03   0.06     0.00   0.03  -0.00     0.00   0.00  -0.01
  45   1     0.02  -0.08  -0.03    -0.03   0.03   0.01     0.00   0.01   0.00
  46   6    -0.02  -0.02  -0.03     0.00   0.04   0.04    -0.10  -0.15  -0.03
  47   8    -0.03  -0.05  -0.05    -0.02   0.09   0.10    -0.30  -0.30  -0.04
  48   7    -0.02   0.03  -0.05     0.03  -0.03   0.06    -0.02   0.02  -0.13
  49   1    -0.01   0.01  -0.02     0.01  -0.01   0.03    -0.06   0.00  -0.05
  50   1    -0.00   0.01  -0.01     0.01  -0.02   0.01     0.01   0.03  -0.02
  51   7    -0.00  -0.02   0.01    -0.00   0.05  -0.03     0.07  -0.19   0.14
  52   1     0.01   0.00   0.01    -0.00  -0.00  -0.02     0.08  -0.01   0.04
  53   1     0.00  -0.01   0.01    -0.01   0.03  -0.01     0.01  -0.09   0.06
                     22                     23                     24
                        a                      a                      a 
 Frequencies --   141.7689               161.9511               176.9221
 Red. masses --    12.6340                13.0270                12.8228
 Frc consts  --     0.0000                 0.0000                 0.0000
 IR Inten    --    27.4945                 3.9321                36.7413
 Raman Activ --     0.0000                 0.0000                 0.0000
 Depolar     --     0.0000                 0.0000                 0.0000
 Atom AN      X      Y      Z        X      Y      Z        X      Y      Z
   1   8     0.02   0.09  -0.08     0.27  -0.08  -0.10    -0.23   0.08   0.05
   2   6     0.04  -0.03   0.03     0.10   0.02  -0.00    -0.09  -0.02  -0.01
   3   1     0.01  -0.03   0.02     0.05   0.03   0.02    -0.04  -0.03  -0.02
   4   1     0.04  -0.00   0.02     0.00  -0.00  -0.00    -0.00  -0.00  -0.00
   5   6    -0.06  -0.10   0.02    -0.01  -0.00  -0.01     0.00   0.00  -0.00
   6   1    -0.02  -0.02  -0.01    -0.02  -0.02  -0.02     0.01   0.01   0.02
   7   1    -0.02  -0.04   0.02    -0.02   0.01   0.02     0.02  -0.00  -0.02
   8   7    -0.13  -0.14  -0.01     0.01   0.00  -0.01    -0.02   0.00   0.01
   9   6    -0.15  -0.07  -0.08     0.01  -0.01   0.01    -0.00   0.01  -0.04
  10   1    -0.04  -0.02  -0.02     0.00   0.00  -0.00    -0.00  -0.00  -0.01
  11   1    -0.06  -0.03  -0.04     0.00   0.00   0.01    -0.00   0.00  -0.02
  12   1    -0.04   0.01  -0.02     0.01  -0.01   0.00     0.00   0.01  -0.01
  13   6    -0.13  -0.14  -0.01     0.03   0.01  -0.01    -0.07  -0.00   0.02
  14   1    -0.04  -0.03  -0.00     0.01   0.01  -0.00    -0.02  -0.00  -0.01
  15   1    -0.03  -0.05   0.00     0.01  -0.00  -0.01    -0.02  -0.00   0.01
  16   1    -0.05  -0.05  -0.00     0.00   0.00  -0.00    -0.03  -0.00   0.01
  17   6    -0.11  -0.14   0.04     0.01   0.01  -0.03     0.01   0.01   0.07
  18   1    -0.03  -0.04   0.02     0.00   0.00  -0.01    -0.00   0.00   0.03
  19   1    -0.02  -0.04   0.01    -0.00  -0.00  -0.01     0.02   0.01   0.02
  20   1    -0.04  -0.04   0.01     0.01   0.00  -0.01    -0.01   0.00   0.02
  21   1     0.01   0.03  -0.02     0.05  -0.04  -0.05    -0.05   0.03   0.04
  22   6     0.05   0.12  -0.02    -0.00  -0.01  -0.00    -0.00  -0.00  -0.00
  23   8     0.13   0.50  -0.02    -0.00  -0.02  -0.00    -0.00  -0.01  -0.00
  24   7     0.32  -0.15   0.20    -0.01   0.00  -0.00    -0.00   0.00  -0.01
  25   1     0.16  -0.01   0.10    -0.00  -0.00  -0.00    -0.00   0.00   0.00
  26   1     0.06  -0.13   0.07    -0.00   0.00  -0.00    -0.00   0.00   0.00
  27   7    -0.23  -0.03  -0.21     0.01  -0.00   0.01     0.00  -0.00  -0.00
  28   1    -0.07  -0.06  -0.05     0.00   0.00   0.00     0.00  -0.00  -0.00
  29   1    -0.10   0.02  -0.06     0.00  -0.00   0.00     0.00  -0.00   0.00
  30   6    -0.01   0.00  -0.01    -0.14  -0.11  -0.22    -0.03  -0.06  -0.08
  31   8    -0.02   0.01  -0.03    -0.16  -0.16  -0.28     0.06  -0.11   0.13
  32   7     0.02   0.00  -0.00    -0.11  -0.10  -0.20    -0.17  -0.19  -0.16
  33   1    -0.00   0.01  -0.00    -0.04  -0.00  -0.06    -0.06  -0.08  -0.03
  34   1    -0.00   0.01   0.00    -0.05   0.00  -0.03    -0.07  -0.03  -0.06
  35   7    -0.01  -0.02   0.01    -0.24  -0.19  -0.16     0.04   0.20  -0.24
  36   1    -0.01  -0.00   0.01    -0.05  -0.06  -0.02     0.02   0.04  -0.14
  37   1    -0.01  -0.01   0.00    -0.07  -0.08  -0.06     0.08   0.08  -0.05
  38   6     0.01  -0.00   0.01     0.07   0.15   0.24     0.16  -0.01   0.09
  39   8     0.01  -0.00   0.01     0.12   0.20   0.12     0.50   0.04   0.32
  40   7     0.00  -0.01   0.01     0.09   0.26   0.30    -0.01  -0.25  -0.04
  41   1    -0.00  -0.00   0.00    -0.01   0.08   0.08     0.01  -0.11   0.01
  42   1    -0.00  -0.00   0.00    -0.03   0.05   0.10    -0.09  -0.09  -0.05
  43   7    -0.01  -0.01   0.01    -0.01   0.04   0.32    -0.13   0.27  -0.05
  44   1     0.02   0.00  -0.00     0.05   0.02   0.11    -0.02   0.08  -0.09
  45   1     0.02   0.00   0.00     0.05  -0.00   0.07     0.08   0.16   0.03
  46   6     0.09   0.05   0.03    -0.00  -0.00   0.00    -0.00   0.00  -0.00
  47   8     0.27   0.14   0.03    -0.01  -0.00   0.00    -0.01   0.00  -0.00
  48   7     0.01  -0.07   0.12     0.00   0.00  -0.00     0.00   0.00  -0.01
  49   1     0.05  -0.02   0.04    -0.00   0.00  -0.00    -0.00  -0.00   0.00
  50   1    -0.02  -0.03   0.02     0.00   0.00  -0.00    -0.00   0.00   0.00
  51   7    -0.06   0.07  -0.05     0.00  -0.00   0.00    -0.00   0.00  -0.00
  52   1    -0.05  -0.01  -0.01     0.00   0.00   0.00     0.00   0.00  -0.00
  53   1     0.00   0.04  -0.03    -0.00  -0.00   0.00     0.00   0.00  -0.00
                     25                     26                     27
                        a                      a                      a 
 Frequencies --   193.0274               216.0031               224.8673
 Red. masses --     9.8442                 2.6244                 9.4520
 Frc consts  --     0.0000                 0.0000                 0.0000
 IR Inten    --     8.0064               184.6171                66.7769
 Raman Activ --     0.0000                 0.0000                 0.0000
 Depolar     --     0.0000                 0.0000                 0.0000
 Atom AN      X      Y      Z        X      Y      Z        X      Y      Z
   1   8     0.02   0.43  -0.38    -0.08   0.03   0.00    -0.35   0.21   0.03
   2   6     0.16  -0.06  -0.04    -0.04   0.00  -0.00    -0.12  -0.02  -0.01
   3   1     0.04  -0.10   0.03    -0.02  -0.00  -0.01    -0.06  -0.05  -0.03
   4   1     0.17   0.01   0.01    -0.01   0.00   0.00     0.02   0.01   0.01
   5   6    -0.21  -0.17  -0.06     0.00  -0.00   0.00     0.03  -0.02   0.00
   6   1    -0.11  -0.12  -0.10     0.01   0.00   0.01     0.02   0.01   0.03
   7   1    -0.15   0.00   0.04     0.01  -0.00  -0.01     0.03  -0.01  -0.02
   8   7     0.02  -0.08   0.08    -0.01  -0.01   0.00     0.03  -0.02   0.04
   9   6     0.08  -0.21   0.27    -0.01   0.01  -0.02     0.01   0.01   0.03
  10   1     0.06  -0.16   0.22    -0.00  -0.00   0.00     0.01  -0.02   0.04
  11   1     0.13  -0.07  -0.05    -0.00  -0.00  -0.02     0.02  -0.01  -0.04
  12   1    -0.11   0.03   0.09    -0.01   0.01  -0.01    -0.03   0.04   0.01
  13   6     0.18   0.14   0.06    -0.02  -0.00   0.00     0.03   0.01   0.04
  14   1     0.07   0.09   0.03    -0.00   0.02   0.00     0.01   0.00   0.01
  15   1     0.09   0.03  -0.04     0.00  -0.01   0.00     0.01   0.01   0.01
  16   1     0.03   0.05   0.05    -0.02  -0.00   0.00     0.01   0.01   0.01
  17   6     0.01  -0.01  -0.00    -0.00  -0.01   0.02     0.03  -0.04   0.06
  18   1    -0.03   0.05  -0.11    -0.00  -0.01   0.01     0.01  -0.01   0.02
  19   1    -0.03  -0.11   0.03     0.00  -0.00   0.00     0.01  -0.01   0.02
  20   1     0.07   0.07   0.07    -0.01  -0.01   0.00     0.00  -0.01   0.02
  21   1     0.02   0.13  -0.08    -0.02   0.01   0.01    -0.07   0.08   0.05
  22   6    -0.02  -0.02   0.01    -0.01   0.01   0.01    -0.00  -0.00  -0.00
  23   8    -0.03  -0.04   0.02    -0.01   0.01   0.02    -0.00  -0.01  -0.01
  24   7    -0.04  -0.01  -0.00     0.02  -0.01  -0.02    -0.01   0.00   0.01
  25   1    -0.01  -0.00  -0.00    -0.01   0.00   0.03     0.00  -0.00  -0.01
  26   1    -0.01   0.00  -0.01    -0.02   0.01   0.03     0.01  -0.00  -0.01
  27   7     0.00  -0.02   0.01    -0.00  -0.00  -0.01    -0.00  -0.00   0.00
  28   1     0.00  -0.00  -0.00    -0.00  -0.00  -0.01    -0.00  -0.00   0.00
  29   1     0.00  -0.01   0.00    -0.00   0.00  -0.00    -0.00  -0.00  -0.00
  30   6    -0.04   0.00   0.03     0.01  -0.03  -0.03     0.15  -0.08  -0.11
  31   8    -0.09   0.04   0.10     0.04  -0.07  -0.05     0.33  -0.24  -0.27
  32   7    -0.07  -0.04   0.01    -0.02   0.01  -0.01     0.06   0.15   0.01
  33   1    -0.02  -0.02   0.01     0.01  -0.00  -0.01     0.00   0.09  -0.01
  34   1    -0.01  -0.02  -0.01    -0.01   0.00   0.00    -0.11   0.19   0.07
  35   7     0.00   0.01  -0.01    -0.04  -0.01  -0.01    -0.23   0.10   0.09
  36   1     0.01  -0.01  -0.02     0.01  -0.02  -0.00     0.29  -0.27  -0.06
  37   1     0.01   0.01   0.00     0.01  -0.03  -0.01     0.23  -0.27  -0.09
  38   6    -0.01  -0.01  -0.02    -0.00   0.01   0.02    -0.01   0.01   0.02
  39   8    -0.01  -0.01   0.01     0.13   0.04  -0.01    -0.07   0.01  -0.03
  40   7     0.01  -0.02  -0.03     0.05   0.00   0.02    -0.00   0.06   0.05
  41   1    -0.01  -0.01  -0.01     0.11   0.03  -0.01     0.01   0.03   0.01
  42   1     0.01  -0.00  -0.01     0.21   0.06  -0.02    -0.01   0.01   0.02
  43   7    -0.00   0.03  -0.03     0.26   0.08   0.04    -0.01  -0.08   0.06
  44   1    -0.02   0.00  -0.02    -0.72  -0.18   0.06     0.11   0.01   0.03
  45   1    -0.02   0.01  -0.00    -0.50  -0.11   0.02     0.06  -0.03   0.00
  46   6    -0.00   0.00   0.00     0.00   0.00   0.00    -0.00   0.00  -0.00
  47   8    -0.01   0.01   0.00     0.00   0.01   0.00    -0.00   0.00  -0.00
  48   7    -0.01   0.01  -0.00     0.01  -0.00   0.00    -0.01   0.00  -0.00
  49   1     0.01   0.00  -0.00    -0.01  -0.00   0.00     0.00   0.00  -0.00
  50   1     0.01   0.00  -0.00    -0.01  -0.00   0.00     0.01   0.00  -0.00
  51   7     0.00   0.01  -0.01    -0.01   0.00  -0.00     0.00   0.00  -0.01
  52   1    -0.01  -0.00   0.00     0.01   0.00  -0.01    -0.01  -0.00   0.00
  53   1    -0.01   0.00   0.00     0.01   0.00  -0.01    -0.00   0.00   0.00
                     28                     29                     30
                        a                      a                      a 
 Frequencies --   240.8083               267.1908               285.1991
 Red. masses --     6.3714                 4.8611                 3.1054
 Frc consts  --     0.0000                 0.0000                 0.0000
 IR Inten    --   134.5745                 2.0582                77.5122
 Raman Activ --     0.0000                 0.0000                 0.0000
 Depolar     --     0.0000                 0.0000                 0.0000
 Atom AN      X      Y      Z        X      Y      Z        X      Y      Z
   1   8     0.28  -0.17  -0.01    -0.01  -0.18   0.27     0.01  -0.02   0.01
   2   6     0.11   0.01   0.01     0.18  -0.18   0.03     0.01  -0.01  -0.00
   3   1     0.05   0.03   0.03     0.04  -0.16   0.04     0.00  -0.00  -0.00
   4   1    -0.00  -0.01  -0.02     0.13  -0.05  -0.09     0.00  -0.00  -0.00
   5   6    -0.05   0.02  -0.00    -0.02   0.11   0.05     0.01  -0.00  -0.00
   6   1    -0.03  -0.01  -0.03    -0.02   0.03  -0.03     0.00  -0.00  -0.00
   7   1    -0.04   0.01   0.03    -0.02   0.03   0.04     0.00  -0.00   0.00
   8   7    -0.03   0.01  -0.04    -0.05   0.10  -0.02    -0.00  -0.00  -0.00
   9   6    -0.01  -0.02  -0.01    -0.04   0.13  -0.16    -0.00  -0.00  -0.01
  10   1    -0.02   0.03  -0.07     0.06  -0.14   0.20     0.01  -0.03   0.04
  11   1    -0.03   0.01   0.08     0.13  -0.02  -0.35     0.02  -0.01  -0.05
  12   1     0.05  -0.08  -0.01    -0.22   0.29  -0.03    -0.03   0.03   0.00
  13   6    -0.01  -0.03  -0.04    -0.06  -0.12  -0.02     0.00   0.00  -0.01
  14   1    -0.01  -0.03  -0.01     0.02   0.10  -0.01     0.01   0.05  -0.00
  15   1    -0.01   0.00  -0.01     0.09  -0.15   0.02     0.04  -0.03  -0.01
  16   1     0.02  -0.00  -0.02    -0.17  -0.09  -0.04    -0.05  -0.01  -0.00
  17   6    -0.03   0.06  -0.09    -0.03   0.19  -0.10     0.00   0.01   0.01
  18   1    -0.01   0.02  -0.02    -0.07   0.15  -0.25     0.00  -0.01   0.03
  19   1    -0.01   0.03  -0.03    -0.07  -0.18   0.03     0.01   0.03  -0.00
  20   1     0.00   0.02  -0.04     0.12   0.20   0.13    -0.01  -0.02  -0.02
  21   1     0.07  -0.04  -0.04     0.01   0.02   0.05     0.00  -0.00   0.00
  22   6     0.00   0.00   0.01    -0.00   0.00  -0.00     0.03  -0.01  -0.02
  23   8     0.00   0.01   0.01     0.01   0.00  -0.01     0.00   0.00   0.02
  24   7     0.01  -0.00  -0.01     0.02  -0.01  -0.01    -0.11   0.04   0.18
  25   1    -0.00   0.00   0.01    -0.01   0.01   0.03     0.11  -0.04  -0.20
  26   1    -0.01   0.00   0.02    -0.03   0.01   0.06     0.23  -0.13  -0.42
  27   7     0.00   0.00  -0.00     0.01   0.00   0.00    -0.01  -0.01  -0.04
  28   1     0.00   0.00  -0.00     0.00  -0.00  -0.02    -0.04   0.01   0.15
  29   1     0.00   0.00   0.00     0.00   0.00  -0.00    -0.01  -0.00   0.03
  30   6    -0.06   0.05   0.07     0.01  -0.02  -0.00    -0.00   0.00   0.00
  31   8    -0.26   0.24   0.18     0.02  -0.02   0.00    -0.01   0.01   0.01
  32   7    -0.06  -0.05   0.03    -0.02   0.00   0.00    -0.00  -0.00   0.00
  33   1    -0.08   0.03   0.03     0.01  -0.01  -0.01    -0.00  -0.00  -0.00
  34   1    -0.09   0.06   0.01     0.00  -0.00   0.00    -0.00  -0.00  -0.00
  35   7    -0.12   0.15   0.06    -0.01   0.01   0.00    -0.00   0.00   0.00
  36   1     0.49  -0.40  -0.18     0.01  -0.01  -0.01     0.01  -0.01  -0.00
  37   1     0.27  -0.20  -0.07     0.01  -0.01  -0.00     0.00  -0.00  -0.00
  38   6     0.01  -0.03  -0.02    -0.00   0.00  -0.00    -0.00  -0.00  -0.00
  39   8     0.05  -0.04   0.03    -0.00   0.00  -0.01    -0.00  -0.00  -0.00
  40   7     0.01  -0.07  -0.05     0.01   0.01  -0.00    -0.00  -0.00  -0.00
  41   1    -0.02  -0.03  -0.01    -0.01   0.00   0.00     0.00   0.00  -0.00
  42   1    -0.02  -0.03  -0.01    -0.01  -0.00   0.00     0.01   0.00  -0.00
  43   7     0.00   0.03  -0.06     0.00  -0.01   0.00     0.00   0.00  -0.00
  44   1    -0.06  -0.00  -0.03     0.00  -0.00   0.00    -0.01  -0.00   0.00
  45   1    -0.03   0.02  -0.01     0.00  -0.00  -0.00    -0.01  -0.00   0.00
  46   6     0.00  -0.00   0.00    -0.01  -0.01   0.01    -0.01   0.02  -0.02
  47   8     0.00   0.00   0.01    -0.01  -0.01   0.01     0.00   0.01  -0.02
  48   7     0.01  -0.01   0.01     0.00  -0.00   0.00     0.24   0.01  -0.06
  49   1    -0.00  -0.00   0.00     0.00  -0.00   0.00    -0.27  -0.03   0.09
  50   1    -0.00  -0.00   0.00     0.00  -0.00  -0.00    -0.42  -0.01   0.11
  51   7    -0.00  -0.00   0.00     0.01  -0.00   0.00    -0.21  -0.02   0.09
  52   1     0.00   0.00  -0.00    -0.00  -0.00   0.00     0.36   0.07  -0.17
  53   1     0.00   0.00  -0.00    -0.01  -0.00   0.01     0.24   0.04  -0.09
                     31                     32                     33
                        a                      a                      a 
 Frequencies --   290.4564               306.4836               308.2945
 Red. masses --     3.1641                 7.7539                 4.8727
 Frc consts  --     0.0000                 0.0000                 0.0000
 IR Inten    --   112.6141                 2.2998                 1.0191
 Raman Activ --     0.0000                 0.0000                 0.0000
 Depolar     --     0.0000                 0.0000                 0.0000
 Atom AN      X      Y      Z        X      Y      Z        X      Y      Z
   1   8     0.01  -0.02  -0.01    -0.01  -0.08  -0.35     0.12  -0.11  -0.08
   2   6     0.01  -0.02   0.00    -0.06  -0.18  -0.08    -0.21   0.25  -0.01
   3   1     0.00  -0.01   0.00    -0.01  -0.05  -0.01    -0.04   0.24  -0.05
   4   1     0.01  -0.01  -0.01    -0.00  -0.05  -0.02    -0.23   0.05   0.07
   5   6    -0.01   0.00   0.00    -0.02  -0.03   0.01     0.13  -0.01  -0.03
   6   1    -0.00   0.00  -0.00    -0.00  -0.00   0.01     0.06   0.01   0.06
   7   1    -0.00   0.00   0.00    -0.01   0.02  -0.05     0.08  -0.02  -0.04
   8   7    -0.01   0.00  -0.00     0.06   0.05   0.15     0.07  -0.04  -0.02
   9   6    -0.02   0.03  -0.03    -0.14   0.32  -0.03     0.07  -0.06  -0.04
  10   1    -0.00   0.00   0.00     0.01   0.07   0.11     0.09  -0.21   0.25
  11   1    -0.01   0.00  -0.03    -0.06   0.03  -0.18     0.18  -0.07  -0.30
  12   1    -0.01   0.03  -0.01    -0.13   0.25  -0.00    -0.19   0.22   0.01
  13   6     0.01  -0.03  -0.00     0.21  -0.30   0.16    -0.08   0.19  -0.03
  14   1     0.01  -0.01   0.01     0.06  -0.20   0.11     0.00   0.22  -0.06
  15   1     0.00  -0.01  -0.00     0.01  -0.05   0.07     0.07  -0.04  -0.02
  16   1     0.01  -0.01  -0.01     0.16  -0.10  -0.05    -0.19   0.03   0.05
  17   6    -0.00   0.02   0.00     0.09   0.16   0.17     0.04  -0.28   0.15
  18   1    -0.01   0.01   0.00     0.04  -0.01   0.27     0.07  -0.15   0.14
  19   1     0.00  -0.00   0.00     0.10   0.27  -0.00     0.05   0.01   0.02
  20   1     0.01   0.01   0.01    -0.05  -0.08  -0.11    -0.09  -0.14   0.01
  21   1     0.00  -0.00  -0.00    -0.01  -0.01  -0.12     0.00  -0.09  -0.05
  22   6     0.04  -0.01  -0.04    -0.01  -0.00   0.00    -0.00   0.01   0.01
  23   8     0.03   0.01  -0.01    -0.01  -0.01  -0.01    -0.01   0.01   0.01
  24   7    -0.15   0.08   0.25    -0.00  -0.01  -0.03     0.01   0.00  -0.02
  25   1     0.14  -0.05  -0.28    -0.02   0.00   0.02    -0.01   0.00   0.01
  26   1     0.30  -0.15  -0.55    -0.03   0.02   0.04    -0.02   0.01   0.03
  27   7    -0.00   0.01   0.03    -0.01  -0.01  -0.01    -0.01   0.00  -0.01
  28   1    -0.01   0.00   0.07    -0.00   0.00   0.00    -0.00   0.00  -0.00
  29   1    -0.02   0.01   0.04     0.00  -0.00  -0.00    -0.00  -0.00   0.00
  30   6    -0.01   0.00   0.00    -0.01   0.01   0.02    -0.02   0.01   0.03
  31   8    -0.01   0.01   0.01    -0.04   0.04   0.03    -0.07   0.05   0.05
  32   7    -0.00  -0.01  -0.00    -0.01  -0.02   0.00    -0.02  -0.01   0.01
  33   1    -0.00  -0.00   0.00    -0.01  -0.01   0.00     0.00  -0.01  -0.00
  34   1    -0.00  -0.00  -0.00     0.00  -0.01  -0.01     0.00  -0.01  -0.00
  35   7     0.00   0.00  -0.00     0.00   0.01   0.01    -0.00   0.02  -0.00
  36   1     0.01  -0.01  -0.01     0.02  -0.02  -0.01     0.07  -0.05  -0.03
  37   1     0.00   0.00  -0.00    -0.00   0.00   0.00     0.02  -0.00  -0.00
  38   6     0.00  -0.00   0.00    -0.00   0.00  -0.01    -0.01   0.00  -0.01
  39   8     0.01   0.00   0.00    -0.01   0.00  -0.01    -0.01   0.00  -0.01
  40   7    -0.00  -0.01  -0.00    -0.01   0.01   0.00     0.01   0.00  -0.01
  41   1     0.01   0.00  -0.00    -0.00   0.00  -0.00    -0.01  -0.01   0.00
  42   1     0.02   0.00  -0.00    -0.00   0.00   0.00    -0.02  -0.01   0.00
  43   7     0.01   0.01  -0.00    -0.00   0.01  -0.01     0.00  -0.01  -0.00
  44   1    -0.05  -0.01   0.00    -0.00   0.00  -0.00     0.02   0.00   0.00
  45   1    -0.03  -0.00   0.00    -0.00   0.00  -0.00     0.01  -0.00  -0.00
  46   6     0.00  -0.01   0.01    -0.01   0.00  -0.00    -0.00  -0.00  -0.00
  47   8    -0.00  -0.01   0.00    -0.01   0.00   0.00    -0.00  -0.00  -0.01
  48   7    -0.16  -0.01   0.04     0.00   0.01  -0.00    -0.02  -0.00  -0.00
  49   1     0.19   0.02  -0.06    -0.01   0.00   0.00     0.02   0.00  -0.01
  50   1     0.31   0.00  -0.08    -0.01   0.00   0.00     0.04   0.00  -0.01
  51   7     0.17   0.02  -0.08    -0.01   0.01  -0.01     0.02   0.00  -0.01
  52   1    -0.31  -0.05   0.15     0.00   0.00  -0.01    -0.04  -0.01   0.02
  53   1    -0.20  -0.03   0.07    -0.00   0.00  -0.00    -0.02  -0.01   0.01
                     34                     35                     36
                        a                      a                      a 
 Frequencies --   335.7551               363.4073               373.6165
 Red. masses --     4.7155                 2.2094                 7.2356
 Frc consts  --     0.0000                 0.0000                 0.0000
 IR Inten    --     0.6722                10.2042                61.6425
 Raman Activ --     0.0000                 0.0000                 0.0000
 Depolar     --     0.0000                 0.0000                 0.0000
 Atom AN      X      Y      Z        X      Y      Z        X      Y      Z
   1   8     0.01  -0.03  -0.27    -0.04   0.03   0.10    -0.00   0.04  -0.16
   2   6    -0.24   0.04   0.04     0.10  -0.04  -0.03    -0.04   0.10  -0.16
   3   1    -0.05   0.09   0.02     0.02  -0.06  -0.00    -0.02   0.10  -0.11
   4   1    -0.14   0.01   0.06     0.08  -0.01  -0.03    -0.08   0.03   0.01
   5   6    -0.06  -0.06   0.06    -0.06  -0.01  -0.04     0.30   0.03  -0.10
   6   1    -0.01  -0.05   0.06    -0.04  -0.03  -0.06     0.14   0.13   0.04
   7   1    -0.03   0.01  -0.01    -0.05   0.00   0.04     0.19  -0.06  -0.09
   8   7     0.12  -0.01   0.06    -0.04  -0.01  -0.06    -0.00  -0.02   0.03
   9   6    -0.03   0.22  -0.09    -0.04  -0.06   0.10    -0.03  -0.13   0.36
  10   1    -0.04   0.21  -0.18    -0.02   0.05  -0.04     0.02  -0.03   0.16
  11   1    -0.17   0.06   0.11    -0.05   0.01   0.14     0.04  -0.01   0.14
  12   1     0.13  -0.02  -0.04     0.04  -0.13   0.02    -0.09  -0.10   0.11
  13   6     0.11  -0.08   0.06     0.07  -0.04  -0.08    -0.25  -0.28   0.06
  14   1     0.09   0.19   0.01     0.14   0.41  -0.03    -0.08  -0.06  -0.02
  15   1     0.20  -0.19   0.02     0.34  -0.33  -0.04    -0.06  -0.14   0.12
  16   1    -0.20  -0.09   0.02    -0.41  -0.14  -0.01    -0.15  -0.12  -0.03
  17   6     0.15  -0.10   0.16     0.03   0.17   0.01     0.03   0.23  -0.09
  18   1    -0.02   0.08  -0.24     0.02  -0.01   0.26    -0.05   0.13  -0.10
  19   1    -0.00  -0.34   0.12     0.11   0.29  -0.05    -0.03   0.03  -0.01
  20   1     0.16   0.16   0.28    -0.08  -0.09  -0.16     0.12   0.12  -0.01
  21   1    -0.02  -0.06  -0.09     0.00   0.03   0.04    -0.00  -0.02  -0.01
  22   6    -0.01  -0.00  -0.01     0.00   0.01   0.01     0.00   0.01  -0.01
  23   8    -0.01   0.00  -0.01    -0.00   0.02   0.00     0.01  -0.00  -0.02
  24   7    -0.00  -0.01   0.01     0.00   0.01  -0.03     0.01   0.00   0.03
  25   1     0.00  -0.00   0.00    -0.02   0.00   0.01     0.02  -0.00  -0.01
  26   1     0.00  -0.01  -0.01    -0.02   0.02   0.03     0.02  -0.02  -0.02
  27   7    -0.00   0.00   0.00    -0.03  -0.01  -0.03     0.00   0.01   0.02
  28   1     0.00   0.00  -0.01    -0.02   0.01   0.06     0.01  -0.01  -0.06
  29   1     0.00  -0.00  -0.00    -0.00  -0.01  -0.00    -0.01   0.01   0.00
  30   6    -0.00   0.02   0.01     0.01  -0.01  -0.01    -0.00   0.00   0.00
  31   8    -0.02   0.03   0.01     0.02  -0.01  -0.02    -0.01   0.00   0.01
  32   7     0.01  -0.01  -0.00     0.00   0.02  -0.00    -0.00  -0.00   0.00
  33   1    -0.01   0.00   0.01     0.00  -0.00   0.00     0.00   0.00  -0.00
  34   1    -0.00   0.00  -0.01     0.02  -0.01  -0.01     0.00  -0.01  -0.00
  35   7     0.01   0.00   0.01    -0.01  -0.00   0.00    -0.00   0.00  -0.00
  36   1     0.02  -0.01  -0.00    -0.01   0.01   0.01     0.00  -0.00  -0.00
  37   1    -0.00   0.00   0.00     0.00  -0.01  -0.00    -0.00   0.00   0.00
  38   6    -0.00  -0.01   0.00    -0.01  -0.01   0.00    -0.01   0.01  -0.00
  39   8    -0.01  -0.01   0.01    -0.01  -0.01   0.01    -0.00   0.01  -0.00
  40   7    -0.00  -0.02  -0.00     0.01  -0.01  -0.00    -0.00   0.01  -0.00
  41   1     0.01  -0.00  -0.00    -0.01  -0.00   0.00     0.00  -0.00   0.00
  42   1     0.01  -0.00  -0.00    -0.01  -0.01  -0.00    -0.02  -0.00  -0.00
  43   7    -0.00  -0.00  -0.00     0.00  -0.01   0.00     0.01  -0.00   0.01
  44   1     0.02   0.00  -0.00     0.02   0.00   0.00    -0.00  -0.00   0.01
  45   1     0.00   0.00   0.00     0.00  -0.00   0.00    -0.00  -0.01  -0.00
  46   6    -0.00  -0.00   0.00    -0.02   0.00  -0.01     0.04   0.00  -0.01
  47   8    -0.01  -0.00   0.00    -0.02  -0.00  -0.01     0.02   0.01   0.00
  48   7     0.00   0.02  -0.01     0.02  -0.02  -0.00    -0.11  -0.01   0.02
  49   1    -0.01   0.00  -0.01    -0.02  -0.01   0.02     0.09   0.01  -0.02
  50   1    -0.02   0.01   0.01    -0.00  -0.01  -0.00     0.19  -0.01  -0.06
  51   7    -0.01  -0.00  -0.01     0.05   0.01  -0.00    -0.09  -0.03   0.06
  52   1     0.02  -0.00  -0.01    -0.09  -0.01   0.06     0.19   0.02  -0.10
  53   1     0.01   0.00  -0.01    -0.04  -0.02   0.02     0.08   0.02  -0.03
                     37                     38                     39
                        a                      a                      a 
 Frequencies --   377.1901               398.1578               424.8771
 Red. masses --     4.1326                 3.3968                 3.2386
 Frc consts  --     0.0000                 0.0000                 0.0000
 IR Inten    --   454.7451               149.4410               332.3551
 Raman Activ --     0.0000                 0.0000                 0.0000
 Depolar     --     0.0000                 0.0000                 0.0000
 Atom AN      X      Y      Z        X      Y      Z        X      Y      Z
   1   8     0.00   0.01  -0.07     0.00   0.00   0.03    -0.02  -0.00  -0.07
   2   6    -0.03   0.04  -0.06     0.01   0.00  -0.00    -0.01  -0.05   0.01
   3   1    -0.01   0.05  -0.04     0.00  -0.00  -0.00    -0.01  -0.03   0.01
   4   1    -0.04   0.01   0.01     0.01   0.00  -0.01     0.01  -0.01  -0.00
   5   6     0.13   0.01  -0.03     0.00  -0.00  -0.00     0.02   0.03   0.04
   6   1     0.06   0.05   0.03    -0.00  -0.02  -0.01     0.02   0.04   0.03
   7   1     0.09  -0.03  -0.04    -0.01   0.00   0.00     0.03   0.00  -0.02
   8   7    -0.00  -0.02   0.02     0.01   0.00  -0.01    -0.02   0.04   0.08
   9   6    -0.02  -0.05   0.13    -0.01   0.01   0.00     0.09  -0.01  -0.05
  10   1     0.01  -0.02   0.06    -0.00  -0.01   0.01    -0.00  -0.04  -0.05
  11   1     0.01  -0.01   0.04     0.00   0.00  -0.01     0.04   0.00  -0.01
  12   1    -0.04  -0.03   0.04    -0.02   0.01   0.00     0.06   0.00  -0.02
  13   6    -0.11  -0.10   0.03     0.01   0.02  -0.01     0.01   0.01   0.08
  14   1    -0.05  -0.07  -0.01     0.00   0.02  -0.01     0.01   0.03   0.02
  15   1    -0.06  -0.01   0.04     0.01  -0.01  -0.00     0.03  -0.02   0.02
  16   1    -0.00  -0.03  -0.01    -0.02   0.00  -0.00    -0.03  -0.01   0.02
  17   6     0.01   0.08  -0.03     0.01   0.01   0.01    -0.09  -0.01  -0.06
  18   1    -0.03   0.06  -0.07     0.00  -0.00   0.02     0.00  -0.03  -0.03
  19   1    -0.02  -0.03   0.00     0.01   0.01  -0.00    -0.06   0.02  -0.02
  20   1     0.06   0.06   0.02    -0.00  -0.00  -0.01    -0.03  -0.02  -0.04
  21   1    -0.00  -0.01  -0.01    -0.00  -0.01   0.01    -0.00   0.00  -0.02
  22   6     0.00   0.00   0.00     0.00  -0.01   0.00    -0.00   0.00  -0.00
  23   8    -0.01   0.00   0.01     0.00  -0.00  -0.00     0.00   0.00  -0.00
  24   7     0.03  -0.01  -0.02    -0.00   0.00  -0.00    -0.00   0.00   0.01
  25   1    -0.00   0.01   0.03    -0.00  -0.00  -0.00     0.00   0.00  -0.00
  26   1    -0.01  -0.00   0.02    -0.01   0.01   0.01     0.01  -0.00  -0.01
  27   7     0.01   0.01  -0.03     0.00  -0.00   0.00    -0.00   0.00   0.02
  28   1    -0.02   0.03   0.11     0.00  -0.00  -0.01     0.01  -0.01  -0.05
  29   1     0.02  -0.01  -0.01    -0.00  -0.00   0.00    -0.01   0.01  -0.00
  30   6    -0.01   0.01   0.00    -0.08   0.10   0.04    -0.04   0.07   0.02
  31   8    -0.01   0.01   0.00    -0.05   0.07  -0.00    -0.02   0.05  -0.01
  32   7     0.01  -0.02  -0.00     0.12  -0.20  -0.06     0.10  -0.14  -0.03
  33   1    -0.01   0.01  -0.00    -0.06   0.06  -0.00     0.00   0.02  -0.01
  34   1    -0.04   0.05   0.02    -0.43   0.47   0.16    -0.38   0.42   0.15
  35   7     0.01  -0.01  -0.00     0.11  -0.10  -0.01     0.10  -0.07  -0.01
  36   1    -0.00   0.00   0.00    -0.05   0.05   0.04    -0.06   0.06   0.04
  37   1    -0.00   0.00   0.00    -0.04   0.02   0.01    -0.04   0.03   0.01
  38   6     0.01   0.01  -0.00     0.12   0.02  -0.01    -0.09  -0.04   0.00
  39   8     0.00   0.00  -0.01     0.05   0.00  -0.02    -0.04  -0.02   0.02
  40   7    -0.02  -0.00   0.00    -0.19  -0.09   0.02     0.19   0.06  -0.04
  41   1     0.01   0.00  -0.00     0.07   0.03  -0.03    -0.01  -0.03   0.01
  42   1     0.04   0.01  -0.00     0.56   0.15  -0.06    -0.62  -0.17   0.05
  43   7    -0.01  -0.01   0.00    -0.13  -0.03   0.01     0.14   0.01  -0.02
  44   1     0.01   0.00   0.00     0.08   0.02   0.00    -0.10  -0.03   0.00
  45   1     0.00  -0.00  -0.00     0.05   0.00  -0.00    -0.07  -0.02  -0.00
  46   6    -0.09  -0.01   0.03     0.01  -0.00  -0.01    -0.00   0.00   0.00
  47   8    -0.04  -0.03  -0.01     0.00   0.00  -0.00    -0.00  -0.00   0.00
  48   7     0.28  -0.00  -0.04    -0.03   0.00   0.00    -0.00  -0.01   0.01
  49   1    -0.22  -0.03   0.06     0.02   0.00  -0.00     0.02   0.00  -0.01
  50   1    -0.49   0.01   0.15     0.05  -0.00  -0.02    -0.02   0.00   0.01
  51   7     0.24   0.07  -0.13    -0.02  -0.01   0.02     0.01   0.00  -0.00
  52   1    -0.48  -0.06   0.25     0.05   0.01  -0.02     0.01  -0.00  -0.00
  53   1    -0.20  -0.05   0.07     0.01   0.00  -0.00    -0.01   0.00   0.00
                     40                     41                     42
                        a                      a                      a 
 Frequencies --   431.1463               433.9670               455.6964
 Red. masses --     8.0822                 2.4162                 6.8776
 Frc consts  --     0.0000                 0.0000                 0.0000
 IR Inten    --    23.2827               144.5681                 5.2101
 Raman Activ --     0.0000                 0.0000                 0.0000
 Depolar     --     0.0000                 0.0000                 0.0000
 Atom AN      X      Y      Z        X      Y      Z        X      Y      Z
   1   8     0.04  -0.00   0.23    -0.00  -0.00   0.03     0.00   0.00   0.02
   2   6     0.04   0.16  -0.03     0.01   0.01  -0.01    -0.00  -0.01   0.04
   3   1     0.01   0.07  -0.03     0.00   0.00  -0.00    -0.00   0.00   0.01
   4   1    -0.03   0.04   0.01     0.00   0.00  -0.01    -0.00  -0.00   0.02
   5   6    -0.04  -0.08  -0.11    -0.02   0.00  -0.02    -0.01  -0.07   0.01
   6   1    -0.03  -0.07  -0.06    -0.01  -0.02  -0.02    -0.01  -0.05  -0.00
   7   1    -0.05  -0.02   0.03    -0.02   0.01   0.01    -0.02  -0.01   0.01
   8   7    -0.04  -0.15  -0.27     0.01   0.00  -0.02     0.06  -0.05  -0.03
   9   6    -0.34  -0.03   0.10    -0.01   0.01   0.02    -0.06   0.05   0.02
  10   1    -0.03   0.07   0.13     0.00   0.01   0.01     0.00   0.05   0.03
  11   1    -0.12  -0.02   0.03    -0.00   0.00   0.01    -0.05   0.00  -0.00
  12   1    -0.21  -0.02   0.04    -0.01  -0.00   0.01    -0.04   0.02   0.01
  13   6     0.10  -0.02  -0.29     0.01  -0.01  -0.02    -0.05   0.04  -0.03
  14   1     0.02  -0.09  -0.04     0.01   0.02  -0.01    -0.03  -0.00  -0.04
  15   1    -0.03   0.07  -0.12     0.02  -0.02   0.00    -0.04   0.03  -0.00
  16   1     0.14   0.04  -0.07    -0.02  -0.01  -0.01    -0.00   0.02   0.02
  17   6     0.26   0.09   0.29     0.02  -0.01   0.01     0.09   0.01  -0.02
  18   1    -0.04   0.12   0.12     0.01  -0.01   0.03     0.01   0.02   0.00
  19   1     0.24  -0.06   0.09     0.02   0.03  -0.00     0.03   0.01  -0.01
  20   1     0.10   0.10   0.19    -0.01  -0.02  -0.01     0.04   0.01  -0.01
  21   1     0.01  -0.00   0.07     0.00   0.00   0.01     0.00   0.00   0.00
  22   6     0.01  -0.02   0.01    -0.01   0.00  -0.06    -0.02   0.00  -0.03
  23   8     0.02   0.01   0.00     0.00   0.02  -0.08    -0.02  -0.01  -0.03
  24   7    -0.02   0.01  -0.02    -0.07  -0.00   0.10    -0.02  -0.03   0.06
  25   1    -0.03  -0.01  -0.01     0.05  -0.02  -0.11     0.05  -0.02  -0.06
  26   1    -0.01   0.03   0.00    -0.00  -0.02  -0.01    -0.01  -0.03   0.02
  27   7    -0.01  -0.03  -0.01     0.02   0.03   0.24     0.04   0.03   0.07
  28   1    -0.01   0.00   0.04     0.13  -0.18  -0.71     0.06  -0.06  -0.27
  29   1    -0.00  -0.01   0.00    -0.06   0.06   0.01    -0.04   0.03   0.05
  30   6    -0.00   0.02  -0.00     0.00  -0.00  -0.00     0.01   0.01  -0.00
  31   8     0.01   0.01  -0.01     0.00  -0.00   0.00     0.01   0.01   0.00
  32   7     0.03  -0.03  -0.01    -0.00   0.01   0.00    -0.01  -0.01  -0.02
  33   1    -0.00   0.01  -0.00    -0.00  -0.00   0.00    -0.01  -0.01   0.00
  34   1    -0.09   0.10   0.03     0.02  -0.02  -0.01    -0.01   0.01  -0.01
  35   7     0.02  -0.02   0.00    -0.01   0.00   0.00    -0.00  -0.01   0.02
  36   1    -0.02   0.02   0.02     0.00  -0.00  -0.00    -0.00  -0.00   0.02
  37   1    -0.01  -0.00   0.00     0.00  -0.00  -0.00    -0.01  -0.01  -0.00
  38   6    -0.02  -0.02   0.00     0.00  -0.00   0.00    -0.00  -0.01   0.00
  39   8    -0.01  -0.01   0.01    -0.00  -0.00  -0.00    -0.00  -0.01  -0.00
  40   7     0.06   0.03  -0.00    -0.01  -0.00   0.00     0.01   0.00   0.01
  41   1    -0.01  -0.00   0.00    -0.00   0.00  -0.00     0.00   0.00   0.00
  42   1    -0.19  -0.05   0.02     0.03   0.01  -0.00    -0.02  -0.01   0.01
  43   7     0.04   0.01  -0.02    -0.01   0.00  -0.00     0.00   0.01  -0.01
  44   1    -0.04  -0.01  -0.01    -0.00   0.00  -0.00    -0.01   0.00  -0.01
  45   1    -0.02   0.00   0.00     0.01   0.00   0.00    -0.00   0.01   0.00
  46   6     0.01  -0.02   0.02    -0.01  -0.02   0.05    -0.10   0.16  -0.19
  47   8     0.02  -0.02   0.02    -0.01  -0.03   0.05    -0.10   0.20  -0.20
  48   7    -0.01   0.05  -0.01     0.00   0.01   0.03     0.03  -0.35  -0.05
  49   1    -0.02   0.02  -0.03     0.25   0.05  -0.17    -0.03  -0.14   0.25
  50   1     0.02   0.04   0.01    -0.34   0.08   0.15     0.03  -0.27  -0.16
  51   7    -0.03  -0.02  -0.04     0.07  -0.01  -0.08     0.10   0.11   0.30
  52   1     0.01  -0.02  -0.04     0.11  -0.03  -0.11    -0.05   0.20   0.29
  53   1    -0.01   0.02  -0.02    -0.20   0.03   0.03     0.27  -0.18   0.11
                     43                     44                     45
                        a                      a                      a 
 Frequencies --   458.0621               461.8734               466.3690
 Red. masses --     8.7456                 4.5796                 7.6494
 Frc consts  --     0.0000                 0.0000                 0.0000
 IR Inten    --     3.7271                18.9087                17.9471
 Raman Activ --     0.0000                 0.0000                 0.0000
 Depolar     --     0.0000                 0.0000                 0.0000
 Atom AN      X      Y      Z        X      Y      Z        X      Y      Z
   1   8     0.02   0.00  -0.02    -0.00  -0.01   0.03     0.00  -0.01   0.04
   2   6     0.01  -0.02   0.02     0.01   0.08  -0.10     0.02   0.15  -0.17
   3   1     0.00  -0.00   0.01     0.00   0.00  -0.02     0.01   0.01  -0.03
   4   1     0.00  -0.00   0.01     0.01   0.02  -0.06     0.00   0.03  -0.10
   5   6     0.01  -0.03   0.01    -0.05   0.16  -0.07    -0.05   0.26  -0.12
   6   1     0.01  -0.00   0.01    -0.02   0.04  -0.04    -0.02   0.09  -0.05
   7   1     0.01  -0.01  -0.00    -0.03   0.04  -0.00    -0.00   0.05  -0.02
   8   7    -0.00  -0.03  -0.00    -0.07   0.13  -0.02    -0.17   0.19  -0.02
   9   6    -0.04   0.00  -0.02     0.09  -0.05   0.02     0.12  -0.13   0.01
  10   1    -0.01   0.01  -0.01     0.01  -0.06  -0.01    -0.00  -0.12  -0.03
  11   1    -0.02  -0.00  -0.01     0.08   0.01   0.03     0.13   0.00   0.04
  12   1    -0.01   0.00  -0.01     0.04  -0.05   0.01     0.06  -0.09  -0.00
  13   6     0.01   0.03  -0.01     0.10  -0.14  -0.01     0.22  -0.22  -0.02
  14   1     0.00   0.01  -0.00     0.05  -0.06   0.06     0.10  -0.10   0.12
  15   1    -0.00   0.02  -0.02     0.05  -0.06   0.01     0.09  -0.09  -0.01
  16   1     0.01   0.02   0.01     0.04  -0.07  -0.07     0.10  -0.10  -0.12
  17   6     0.01   0.03  -0.01    -0.09  -0.08   0.12    -0.18  -0.11   0.26
  18   1    -0.01   0.02   0.00     0.01  -0.05   0.03    -0.02  -0.06   0.04
  19   1     0.01   0.01  -0.00    -0.00  -0.06   0.04    -0.00  -0.12   0.09
  20   1     0.02   0.01  -0.00    -0.08  -0.02   0.07    -0.11  -0.00   0.16
  21   1     0.00  -0.01   0.00     0.00  -0.01   0.02     0.00  -0.02   0.04
  22   6     0.01  -0.00   0.00    -0.04   0.01  -0.05    -0.04   0.02  -0.02
  23   8     0.01   0.00   0.00    -0.05   0.01  -0.05    -0.05  -0.02  -0.01
  24   7    -0.01   0.01  -0.00    -0.01  -0.05   0.07     0.03  -0.05   0.00
  25   1    -0.01  -0.00  -0.01     0.07  -0.01  -0.04     0.02   0.02   0.09
  26   1    -0.00   0.01   0.00    -0.01  -0.06   0.02     0.01  -0.07  -0.01
  27   7    -0.01  -0.01  -0.00     0.06   0.06   0.10     0.03   0.05  -0.03
  28   1    -0.00  -0.01  -0.00     0.07  -0.04  -0.30    -0.01   0.08   0.12
  29   1    -0.01   0.00  -0.00     0.00   0.02   0.03     0.05  -0.02  -0.01
  30   6    -0.14  -0.16   0.07    -0.02  -0.03   0.01    -0.03  -0.04   0.01
  31   8    -0.19  -0.16  -0.07    -0.03  -0.03  -0.01    -0.04  -0.04  -0.01
  32   7     0.17   0.08   0.24     0.03   0.02   0.04     0.04   0.03   0.05
  33   1     0.10   0.12  -0.01     0.02   0.02  -0.01     0.04   0.02  -0.01
  34   1     0.07   0.03   0.20     0.01   0.01   0.04     0.02   0.01   0.05
  35   7     0.06   0.16  -0.22     0.01   0.02  -0.04     0.01   0.03  -0.05
  36   1    -0.02   0.05  -0.26    -0.00   0.01  -0.04    -0.01   0.01  -0.05
  37   1     0.15   0.19   0.02     0.02   0.03   0.00     0.03   0.03   0.00
  38   6    -0.05   0.21  -0.02     0.00   0.00  -0.00     0.01  -0.03  -0.00
  39   8    -0.04   0.22   0.13    -0.00   0.00   0.00     0.00  -0.03  -0.02
  40   7     0.01  -0.13  -0.28    -0.00   0.00  -0.00    -0.01   0.03   0.04
  41   1     0.00  -0.15  -0.02    -0.01   0.00  -0.00    -0.02   0.03   0.00
  42   1    -0.00  -0.03  -0.20     0.02   0.01   0.00     0.03   0.02   0.04
  43   7     0.05  -0.20   0.19    -0.00  -0.00  -0.00    -0.01   0.02  -0.03
  44   1    -0.00  -0.08   0.26    -0.00  -0.00   0.00    -0.01   0.01  -0.04
  45   1     0.10  -0.22  -0.07     0.00  -0.00  -0.00    -0.01   0.03   0.01
  46   6    -0.00   0.01  -0.01     0.02  -0.06   0.08    -0.03   0.07  -0.09
  47   8    -0.01   0.01  -0.01     0.02  -0.07   0.10    -0.04   0.09  -0.10
  48   7    -0.00  -0.02  -0.00     0.11   0.17  -0.04    -0.06  -0.16   0.00
  49   1     0.02  -0.01   0.00    -0.33   0.01   0.07     0.18  -0.03   0.01
  50   1    -0.02  -0.01  -0.00     0.23   0.07  -0.04    -0.13  -0.09  -0.01
  51   7     0.01   0.01   0.02    -0.15  -0.05  -0.12     0.11   0.06   0.13
  52   1     0.02   0.01   0.01    -0.32  -0.07   0.11     0.17   0.08   0.00
  53   1    -0.01  -0.01   0.02     0.43   0.06  -0.20    -0.18  -0.08   0.14
                     46                     47                     48
                        a                      a                      a 
 Frequencies --   468.4757               477.1511               480.5822
 Red. masses --     7.5662                 7.5983                 4.4527
 Frc consts  --     0.0000                 0.0000                 0.0000
 IR Inten    --     3.5792                23.4119                18.8401
 Raman Activ --     0.0000                 0.0000                 0.0000
 Depolar     --     0.0000                 0.0000                 0.0000
 Atom AN      X      Y      Z        X      Y      Z        X      Y      Z
   1   8     0.02   0.00  -0.06     0.03   0.01  -0.06     0.01   0.00   0.00
   2   6    -0.01  -0.01  -0.00    -0.01  -0.06   0.06     0.01  -0.01   0.01
   3   1    -0.01   0.02  -0.02    -0.01   0.02  -0.02     0.00  -0.00   0.00
   4   1    -0.02  -0.00   0.02    -0.02  -0.01   0.07     0.00  -0.00   0.00
   5   6     0.15   0.01   0.03     0.20  -0.11   0.06    -0.03  -0.03  -0.00
   6   1     0.10   0.13   0.07     0.12   0.12   0.10    -0.03  -0.05  -0.02
   7   1     0.15  -0.07  -0.05     0.18  -0.11  -0.06    -0.05   0.02   0.02
   8   7    -0.21  -0.07   0.06    -0.20  -0.17   0.06     0.07   0.00  -0.01
   9   6    -0.06  -0.17  -0.15    -0.15  -0.16  -0.19     0.00   0.07   0.04
  10   1    -0.05  -0.09  -0.09    -0.06  -0.06  -0.09     0.01   0.04   0.02
  11   1     0.01  -0.04  -0.05    -0.06  -0.06  -0.08    -0.02   0.01   0.01
  12   1     0.05  -0.03  -0.05     0.02   0.00  -0.06    -0.02   0.02   0.01
  13   6     0.18   0.06   0.04     0.18   0.19   0.04    -0.08  -0.00   0.00
  14   1     0.09   0.04   0.09     0.09   0.11   0.07    -0.04  -0.01  -0.03
  15   1     0.09   0.02  -0.09     0.09   0.06  -0.12    -0.04   0.00   0.03
  16   1     0.08   0.03   0.02     0.07   0.09   0.07    -0.04  -0.00   0.01
  17   6    -0.15   0.13   0.10    -0.09   0.23   0.05     0.05  -0.03  -0.06
  18   1    -0.09   0.08  -0.00    -0.10   0.13   0.03     0.02  -0.02  -0.01
  19   1    -0.03   0.00   0.03     0.00   0.08   0.01    -0.00   0.00  -0.02
  20   1     0.02   0.07   0.05     0.06   0.09  -0.00     0.01  -0.02  -0.03
  21   1     0.00  -0.02  -0.00     0.00  -0.02  -0.00    -0.00  -0.02   0.02
  22   6     0.17  -0.09   0.11    -0.14   0.04  -0.09     0.02  -0.00   0.01
  23   8     0.24   0.09   0.09    -0.18  -0.04  -0.09     0.02   0.00   0.01
  24   7    -0.13   0.22  -0.09     0.05  -0.19   0.06    -0.00   0.02  -0.00
  25   1    -0.18  -0.05  -0.28     0.11   0.04   0.23    -0.01  -0.01  -0.04
  26   1    -0.03   0.31   0.04     0.02  -0.24  -0.04    -0.00   0.03   0.01
  27   7    -0.19  -0.25  -0.02     0.16   0.19   0.07    -0.02  -0.02  -0.01
  28   1    -0.07  -0.21  -0.07     0.08   0.14  -0.07    -0.01  -0.02   0.01
  29   1    -0.16   0.02  -0.02     0.13  -0.02   0.03    -0.02   0.00  -0.00
  30   6    -0.00  -0.01   0.00    -0.01  -0.01   0.00    -0.09  -0.11   0.04
  31   8    -0.01  -0.01   0.00    -0.01  -0.01  -0.00    -0.12  -0.12  -0.05
  32   7    -0.01   0.01   0.01     0.00   0.01   0.01     0.13   0.08   0.16
  33   1     0.01   0.00  -0.00     0.01   0.00  -0.00     0.10   0.08  -0.02
  34   1     0.02  -0.02  -0.00     0.02  -0.02   0.01     0.04   0.04   0.15
  35   7    -0.00   0.00  -0.01    -0.00   0.01  -0.01     0.03   0.08  -0.15
  36   1     0.01  -0.01  -0.01     0.01  -0.01  -0.02    -0.01   0.02  -0.17
[...]
  44   1     0.00  -0.00  -0.00    -0.00  -0.00   0.00    -0.00   0.00   0.00
  45   1    -0.00   0.00  -0.00    -0.00   0.00  -0.00     0.00   0.00  -0.00
  46   6     0.00  -0.00   0.00    -0.01   0.01  -0.01     0.00  -0.00  -0.00
  47   8    -0.00   0.00  -0.00     0.00  -0.01   0.01     0.00  -0.00   0.00
  48   7    -0.00   0.00  -0.00     0.00  -0.00   0.00    -0.03  -0.07  -0.16
  49   1     0.00  -0.00   0.00    -0.00   0.02   0.01    -0.04   0.67   0.11
  50   1    -0.00   0.00  -0.00     0.00  -0.01   0.01     0.13  -0.40   0.48
  51   7     0.00   0.00  -0.00     0.00  -0.00   0.00     0.01  -0.06  -0.01
  52   1    -0.00   0.00  -0.00     0.00  -0.00   0.00    -0.10   0.14  -0.16
  53   1     0.00   0.00   0.00    -0.00  -0.00  -0.01     0.06   0.08   0.18
                    142                    143                    144
                        a                      a                      a 
 Frequencies --  3496.4584              3496.6944              3499.8596
 Red. masses --     1.4513                 1.4609                 1.4459
 Frc consts  --     0.0000                 0.0000                 0.0000
 IR Inten    --    11.4740                19.7921                27.5769
 Raman Activ --     0.0000                 0.0000                 0.0000
 Depolar     --     0.0000                 0.0000                 0.0000
 Atom AN      X      Y      Z        X      Y      Z        X      Y      Z
   1   8     0.00  -0.00  -0.00    -0.00  -0.00  -0.00     0.00  -0.00  -0.00
   2   6    -0.00   0.00  -0.00    -0.00   0.00   0.00     0.00  -0.00   0.00
   3   1    -0.00   0.00  -0.00     0.00   0.00  -0.00     0.00   0.00   0.00
   4   1     0.00  -0.00   0.00     0.00  -0.00  -0.00    -0.00   0.00   0.00
   5   6     0.00   0.00   0.00     0.00   0.00   0.00     0.00  -0.00   0.00
   6   1     0.00   0.00  -0.00     0.00   0.00  -0.00    -0.00  -0.00  -0.00
   7   1    -0.00  -0.00  -0.00    -0.00  -0.00  -0.00     0.00   0.00   0.00
   8   7    -0.00  -0.00   0.00     0.00   0.00   0.00    -0.00   0.00  -0.00
   9   6     0.00  -0.00   0.00     0.00   0.00   0.00     0.00   0.00  -0.00
  10   1    -0.00   0.00   0.00     0.00  -0.00  -0.00    -0.00   0.00  -0.00
  11   1     0.00  -0.00  -0.00     0.00   0.00   0.00     0.00  -0.00   0.00
  12   1     0.00   0.00  -0.00    -0.00   0.00  -0.00    -0.00  -0.00   0.00
  13   6     0.00   0.00   0.00     0.00   0.00  -0.00     0.00   0.00  -0.00
  14   1    -0.00   0.00   0.00    -0.00   0.00  -0.00    -0.00  -0.00  -0.00
  15   1    -0.00  -0.00  -0.00    -0.00  -0.00  -0.00    -0.00  -0.00   0.00
  16   1    -0.00   0.00  -0.00     0.00  -0.00   0.00    -0.00   0.00  -0.00
  17   6     0.00   0.00   0.00    -0.00   0.00  -0.00     0.00   0.00   0.00
  18   1    -0.00  -0.00  -0.00    -0.00  -0.00  -0.00    -0.00  -0.00  -0.00
  19   1     0.00   0.00   0.00    -0.00   0.00  -0.00    -0.00  -0.00   0.00
  20   1    -0.00   0.00  -0.00     0.00  -0.00   0.00    -0.00   0.00  -0.00
  21   1    -0.00   0.00   0.00     0.00  -0.00  -0.00    -0.02   0.00   0.00
  22   6    -0.00  -0.00  -0.00    -0.00  -0.00  -0.00    -0.00  -0.00  -0.00
  23   8     0.00  -0.00   0.00     0.00  -0.00   0.00     0.00   0.00   0.00
  24   7    -0.11  -0.13  -0.04    -0.03  -0.04  -0.01     0.00   0.00   0.00
  25   1    -0.16   0.59  -0.19    -0.05   0.18  -0.06     0.00  -0.00   0.00
  26   1     0.58  -0.11   0.35     0.18  -0.03   0.11    -0.00   0.00  -0.00
  27   7     0.02   0.00   0.00     0.00   0.00   0.00     0.00   0.00   0.00
  28   1    -0.05   0.01  -0.01    -0.00   0.00  -0.00    -0.00   0.00  -0.00
  29   1    -0.01  -0.01  -0.00    -0.01  -0.01  -0.00    -0.00  -0.00  -0.00
  30   6    -0.00   0.00  -0.00     0.00   0.00   0.00    -0.00  -0.00  -0.00
  31   8     0.00  -0.00   0.00    -0.00  -0.00  -0.00     0.00   0.00  -0.00
  32   7     0.00  -0.00   0.00     0.00   0.00  -0.00     0.01   0.01   0.00
  33   1    -0.00  -0.00  -0.00     0.00   0.00   0.00    -0.01  -0.00  -0.01
  34   1     0.00   0.00  -0.00    -0.00  -0.00   0.00    -0.03  -0.03   0.01
  35   7     0.00   0.00   0.00    -0.00  -0.00  -0.00    -0.10  -0.06  -0.15
  36   1    -0.00  -0.00   0.00     0.00   0.00  -0.00     0.43   0.53  -0.08
  37   1     0.00   0.00  -0.00    -0.00  -0.00   0.00    -0.07  -0.32   0.62
  38   6    -0.00   0.00  -0.00     0.00  -0.00   0.00    -0.00  -0.00  -0.00
  39   8     0.00  -0.00   0.00    -0.00   0.00  -0.00     0.00   0.00   0.00
  40   7     0.00  -0.00   0.00    -0.00   0.00  -0.00     0.00  -0.00   0.00
  41   1    -0.00  -0.00  -0.00     0.00   0.00   0.00    -0.00  -0.01  -0.01
  42   1    -0.00   0.00   0.00     0.00  -0.00  -0.00    -0.00   0.01   0.00
  43   7     0.00   0.00   0.00    -0.00   0.00   0.00    -0.00   0.00   0.00
  44   1     0.00  -0.00  -0.00     0.00  -0.00  -0.00     0.00  -0.00  -0.00
  45   1    -0.00   0.00  -0.00    -0.00   0.00  -0.00    -0.00   0.00  -0.00
  46   6    -0.00   0.00  -0.00     0.00  -0.00   0.00    -0.00   0.00  -0.00
  47   8     0.00  -0.00   0.00    -0.00   0.00  -0.00     0.00  -0.00   0.00
  48   7    -0.00  -0.01  -0.01     0.01   0.03   0.05    -0.00  -0.00  -0.00
  49   1    -0.00   0.05   0.01     0.01  -0.23  -0.04    -0.00   0.00   0.00
  50   1     0.01  -0.02   0.03    -0.04   0.13  -0.15     0.00  -0.00   0.00
  51   7    -0.01   0.05   0.01     0.03  -0.16  -0.02    -0.00   0.00   0.00
  52   1     0.09  -0.12   0.14    -0.28   0.38  -0.45     0.00  -0.00   0.00
  53   1    -0.05  -0.07  -0.17     0.17   0.23   0.54    -0.00  -0.00  -0.00
                    145                    146                    147
                        a                      a                      a 
 Frequencies --  3502.7326              3516.1133              3534.7403
 Red. masses --     1.4466                 1.9206                 1.9077
 Frc consts  --     0.0000                 0.0000                 0.0000
 IR Inten    --    21.2965                 9.7081                17.6488
 Raman Activ --     0.0000                 0.0000                 0.0000
 Depolar     --     0.0000                 0.0000                 0.0000
 Atom AN      X      Y      Z        X      Y      Z        X      Y      Z
   1   8    -0.00   0.00   0.00    -0.00  -0.00  -0.00    -0.00   0.00   0.00
   2   6     0.00  -0.00  -0.00     0.00   0.00   0.00    -0.00   0.00  -0.00
   3   1    -0.00   0.00   0.00    -0.00   0.00   0.00     0.00  -0.00  -0.00
   4   1    -0.00   0.00  -0.00     0.00  -0.00   0.00    -0.00  -0.00   0.00
   5   6    -0.00   0.00   0.00     0.00   0.00   0.00    -0.00   0.00   0.00
   6   1     0.00  -0.00  -0.00     0.00  -0.00  -0.00     0.00  -0.00  -0.00
   7   1     0.00   0.00  -0.00    -0.00  -0.00   0.00     0.00   0.00   0.00
   8   7    -0.00  -0.00  -0.00     0.00  -0.00   0.00    -0.00   0.00   0.00
   9   6    -0.00   0.00   0.00     0.00   0.00   0.00    -0.00   0.00   0.00
  10   1     0.00  -0.00  -0.00    -0.00  -0.00  -0.00     0.00   0.00  -0.00
  11   1    -0.00   0.00  -0.00    -0.00  -0.00  -0.00     0.00  -0.00   0.00
  12   1    -0.00   0.00   0.00    -0.00  -0.00  -0.00    -0.00   0.00   0.00
  13   6    -0.00   0.00   0.00    -0.00  -0.00   0.00    -0.00   0.00   0.00
  14   1     0.00  -0.00  -0.00    -0.00  -0.00  -0.00     0.00  -0.00  -0.00
  15   1     0.00   0.00   0.00     0.00   0.00   0.00     0.00   0.00   0.00
  16   1    -0.00   0.00   0.00    -0.00   0.00  -0.00     0.00  -0.00   0.00
  17   6    -0.00  -0.00  -0.00     0.00  -0.00   0.00    -0.00   0.00  -0.00
  18   1     0.00   0.00   0.00    -0.00  -0.00   0.00     0.00   0.00  -0.00
  19   1    -0.00   0.00  -0.00    -0.00  -0.00  -0.00    -0.00   0.00   0.00
  20   1     0.00  -0.00   0.00    -0.00   0.00  -0.00     0.00  -0.00   0.00
  21   1     0.00  -0.00  -0.00     0.00   0.00   0.00     0.00  -0.00  -0.00
  22   6     0.00  -0.00   0.00    -0.01  -0.00   0.00     0.00  -0.00   0.00
  23   8    -0.00   0.00  -0.00     0.00   0.00   0.00    -0.00   0.00   0.00
  24   7    -0.00  -0.00  -0.00     0.00  -0.02   0.01     0.00  -0.00   0.00
  25   1    -0.00   0.00  -0.00    -0.02   0.07  -0.02    -0.00   0.00  -0.00
  26   1     0.00  -0.00   0.00     0.00  -0.00   0.00    -0.00   0.00  -0.00
  27   7    -0.00   0.00  -0.00    -0.26   0.02  -0.06    -0.00   0.00  -0.00
  28   1     0.00  -0.00   0.00     0.91  -0.19   0.20     0.00  -0.00   0.00
  29   1    -0.00   0.00   0.00     0.06   0.11   0.02     0.00  -0.00  -0.00
  30   6    -0.00  -0.00  -0.00     0.00   0.00  -0.00     0.01   0.00   0.00
  31   8     0.00   0.00   0.00    -0.00  -0.00  -0.00    -0.00  -0.00  -0.00
  32   7    -0.00  -0.00   0.00    -0.00  -0.00  -0.00     0.19   0.18  -0.02
  33   1    -0.00  -0.00  -0.01     0.00   0.00   0.00    -0.03  -0.02  -0.08
  34   1     0.01   0.01  -0.00     0.00   0.00  -0.00    -0.68  -0.65   0.15
  35   7    -0.00  -0.00  -0.00     0.00   0.00  -0.00    -0.01  -0.01   0.02
  36   1     0.00   0.00  -0.00    -0.00   0.00  -0.00     0.01   0.02  -0.00
  37   1    -0.00  -0.00   0.00    -0.00  -0.00   0.00     0.01   0.04  -0.07
  38   6     0.00  -0.00  -0.00     0.00   0.00  -0.00    -0.00   0.00   0.00
  39   8    -0.00   0.00  -0.00    -0.00  -0.00   0.00    -0.00  -0.00  -0.00
  40   7    -0.00   0.01   0.01     0.00  -0.00  -0.00    -0.01   0.02   0.00
  41   1    -0.00  -0.01  -0.01     0.00   0.00   0.00    -0.00  -0.00  -0.01
  42   1     0.01  -0.05  -0.00    -0.00   0.00   0.00     0.02  -0.09  -0.01
  43   7     0.02  -0.09  -0.16    -0.00   0.00   0.00     0.00  -0.00   0.00
  44   1    -0.17   0.70   0.05     0.00  -0.00  -0.00    -0.00   0.01   0.00
  45   1     0.09  -0.37   0.55    -0.00   0.00  -0.00    -0.00   0.00  -0.01
  46   6     0.00  -0.00   0.00     0.00  -0.00   0.00     0.00  -0.00   0.00
  47   8    -0.00   0.00  -0.00     0.00   0.00  -0.00    -0.00   0.00  -0.00
  48   7     0.00   0.00   0.00    -0.00   0.00  -0.00     0.00  -0.00   0.00
  49   1     0.00  -0.00  -0.00    -0.00  -0.00   0.00     0.00   0.00   0.00
  50   1    -0.00   0.00  -0.00     0.00  -0.00   0.00    -0.00   0.00  -0.00
  51   7     0.00  -0.00  -0.00    -0.00   0.00  -0.00    -0.00   0.00  -0.00
  52   1    -0.00   0.00  -0.00     0.00  -0.01   0.01     0.00  -0.00   0.00
  53   1     0.00   0.00   0.00    -0.00  -0.00  -0.00     0.00   0.00   0.00
                    148                    149                    150
                        a                      a                      a 
 Frequencies --  3536.9163              3554.1480              3560.6928
 Red. masses --     1.9033                 2.1893                 2.1755
 Frc consts  --     0.0000                 0.0000                 0.0000
 IR Inten    --    13.1716                15.3929                17.0227
 Raman Activ --     0.0000                 0.0000                 0.0000
 Depolar     --     0.0000                 0.0000                 0.0000
 Atom AN      X      Y      Z        X      Y      Z        X      Y      Z
   1   8     0.00  -0.00  -0.00    -0.00  -0.00  -0.00    -0.00  -0.00  -0.00
   2   6    -0.00  -0.00  -0.00     0.00   0.00   0.00     0.00   0.00   0.00
   3   1     0.00  -0.00   0.00     0.00   0.00  -0.00    -0.00   0.00   0.00
   4   1    -0.00   0.00   0.00     0.00  -0.00   0.00    -0.00   0.00  -0.00
   5   6    -0.00  -0.00   0.00    -0.00   0.00  -0.00     0.00  -0.00   0.00
   6   1     0.00   0.00  -0.00     0.00  -0.00   0.00     0.00   0.00  -0.00
   7   1    -0.00   0.00   0.00     0.00   0.00   0.00    -0.00  -0.00  -0.00
   8   7     0.00   0.00   0.00    -0.00  -0.00  -0.00     0.00   0.00   0.00
   9   6     0.00  -0.00   0.00    -0.00   0.00  -0.00     0.00  -0.00   0.00
  10   1    -0.00  -0.00   0.00     0.00   0.00  -0.00     0.00  -0.00  -0.00
  11   1    -0.00   0.00   0.00     0.00  -0.00   0.00     0.00   0.00   0.00
  12   1    -0.00  -0.00  -0.00    -0.00   0.00  -0.00    -0.00   0.00  -0.00
  13   6     0.00  -0.00  -0.00    -0.00  -0.00  -0.00     0.00   0.00   0.00
  14   1    -0.00   0.00   0.00     0.00  -0.00   0.00    -0.00   0.00  -0.00
  15   1    -0.00   0.00   0.00     0.00   0.00   0.00    -0.00  -0.00  -0.00
  16   1     0.00  -0.00   0.00    -0.00  -0.00  -0.00     0.00  -0.00   0.00
  17   6     0.00   0.00  -0.00    -0.00  -0.00  -0.00    -0.00   0.00  -0.00
  18   1    -0.00  -0.00  -0.00     0.00   0.00   0.00    -0.00  -0.00  -0.00
  19   1     0.00   0.00   0.00     0.00  -0.00  -0.00    -0.00   0.00  -0.00
  20   1    -0.00   0.00  -0.00    -0.00  -0.00   0.00     0.00  -0.00   0.00
  21   1    -0.00   0.00   0.00    -0.00   0.00   0.00     0.00  -0.00  -0.00
  22   6    -0.00  -0.00  -0.00     0.00  -0.00   0.00    -0.00   0.00  -0.00
  23   8     0.00  -0.00   0.00    -0.00   0.00  -0.00     0.00   0.00   0.00
  24   7     0.00  -0.00   0.00     0.00   0.00   0.00    -0.00   0.00  -0.00
  25   1    -0.00   0.00  -0.00     0.00  -0.00   0.00     0.00  -0.01   0.00
  26   1    -0.00   0.00  -0.00    -0.00   0.00  -0.00     0.01  -0.00   0.01
  27   7    -0.00   0.00  -0.00    -0.00  -0.00  -0.00     0.00   0.00   0.00
  28   1     0.00  -0.00   0.00     0.00   0.00   0.00    -0.00   0.00  -0.00
  29   1     0.00   0.00   0.00     0.00   0.00   0.00    -0.01  -0.01  -0.00
  30   6     0.00   0.00  -0.00     0.00   0.00  -0.00     0.00   0.00   0.00
  31   8    -0.00  -0.00   0.00    -0.00  -0.00  -0.00    -0.00  -0.00  -0.00
  32   7    -0.02  -0.02   0.00    -0.00  -0.00  -0.00    -0.00  -0.00  -0.00
  33   1     0.00   0.00   0.01     0.00   0.00   0.00     0.00   0.00   0.00
  34   1     0.07   0.06  -0.01     0.00   0.00  -0.00     0.00   0.00  -0.00
  35   7    -0.00  -0.00  -0.00     0.00   0.00  -0.00     0.00   0.00  -0.00
  36   1     0.01   0.01  -0.00    -0.00  -0.00   0.00    -0.00  -0.00   0.00
  37   1    -0.00  -0.00   0.01    -0.00  -0.00   0.00    -0.00  -0.00   0.00
  38   6    -0.00   0.01   0.01     0.00   0.00   0.00     0.00  -0.00  -0.00
  39   8     0.00  -0.00  -0.00    -0.00  -0.00  -0.00    -0.00   0.00   0.00
  40   7    -0.06   0.25   0.04    -0.00   0.00  -0.00     0.00  -0.00  -0.00
  41   1    -0.01  -0.02  -0.08     0.00   0.00   0.00     0.00   0.00   0.00
  42   1     0.25  -0.92  -0.07     0.00  -0.00  -0.00    -0.00   0.00   0.00
  43   7     0.00  -0.02   0.02     0.00  -0.00   0.00    -0.00   0.00   0.00
  44   1    -0.00   0.01   0.00    -0.00   0.00   0.00     0.00  -0.00  -0.00
  45   1    -0.01   0.05  -0.07    -0.00   0.00  -0.00    -0.00  -0.00   0.00
  46   6    -0.00   0.00  -0.00    -0.00  -0.01  -0.00    -0.00   0.00  -0.01
  47   8     0.00  -0.00   0.00     0.00   0.00   0.00     0.00  -0.00   0.00
  48   7    -0.00   0.00  -0.00     0.04  -0.24   0.10    -0.02   0.13  -0.05
  49   1    -0.00   0.00   0.00    -0.03   0.56   0.12     0.02  -0.30  -0.06
  50   1     0.00  -0.00   0.00    -0.12   0.36  -0.47     0.07  -0.20   0.26
  51   7    -0.00   0.00   0.00    -0.06   0.01  -0.13    -0.11   0.03  -0.24
  52   1     0.00  -0.00   0.00     0.13  -0.18   0.19     0.25  -0.36   0.38
  53   1    -0.00  -0.00  -0.00     0.09   0.14   0.30     0.15   0.25   0.54
                    151                    152                    153
                        a                      a                      a 
 Frequencies --  3562.5191              3567.0225              3569.9426
 Red. masses --     2.1812                 2.1888                 2.1859
 Frc consts  --     0.0000                 0.0000                 0.0000
 IR Inten    --    10.6938                17.9464                15.2817
 Raman Activ --     0.0000                 0.0000                 0.0000
 Depolar     --     0.0000                 0.0000                 0.0000
 Atom AN      X      Y      Z        X      Y      Z        X      Y      Z
   1   8     0.00  -0.00   0.00     0.00  -0.00  -0.00     0.00  -0.00  -0.00
   2   6    -0.00   0.00  -0.00    -0.00   0.00   0.00    -0.00   0.00  -0.00
   3   1     0.00  -0.00  -0.00     0.00  -0.00  -0.00     0.00  -0.00   0.00
   4   1     0.00   0.00   0.00    -0.00   0.00   0.00    -0.00  -0.00   0.00
   5   6     0.00   0.00   0.00    -0.00   0.00   0.00    -0.00  -0.00   0.00
   6   1     0.00   0.00   0.00     0.00  -0.00  -0.00     0.00   0.00  -0.00
   7   1    -0.00  -0.00  -0.00     0.00  -0.00   0.00    -0.00   0.00  -0.00
   8   7    -0.00  -0.00   0.00    -0.00   0.00  -0.00     0.00  -0.00  -0.00
   9   6     0.00  -0.00   0.00    -0.00   0.00   0.00    -0.00   0.00   0.00
  10   1    -0.00   0.00   0.00     0.00   0.00  -0.00     0.00  -0.00  -0.00
  11   1     0.00   0.00   0.00     0.00  -0.00   0.00    -0.00  -0.00   0.00
  12   1    -0.00   0.00  -0.00    -0.00   0.00  -0.00    -0.00   0.00   0.00
  13   6     0.00   0.00   0.00    -0.00   0.00  -0.00    -0.00   0.00   0.00
  14   1    -0.00   0.00   0.00     0.00   0.00  -0.00     0.00  -0.00  -0.00
  15   1    -0.00  -0.00  -0.00    -0.00  -0.00  -0.00     0.00   0.00   0.00
  16   1     0.00   0.00   0.00     0.00  -0.00   0.00    -0.00   0.00   0.00
  17   6     0.00   0.00   0.00    -0.00   0.00  -0.00    -0.00  -0.00  -0.00
  18   1    -0.00  -0.00  -0.00    -0.00  -0.00  -0.00     0.00   0.00   0.00
  19   1     0.00   0.00  -0.00    -0.00   0.00   0.00    -0.00   0.00   0.00
  20   1     0.00  -0.00   0.00     0.00  -0.00   0.00     0.00  -0.00   0.00
  21   1    -0.00   0.00   0.00    -0.01   0.00   0.00    -0.00   0.00   0.00
  22   6     0.01  -0.01   0.00    -0.00   0.00  -0.00     0.00  -0.00   0.00
  23   8    -0.00   0.00  -0.00     0.00  -0.00   0.00    -0.00  -0.00  -0.00
  24   7     0.19  -0.19   0.14    -0.00   0.00  -0.00    -0.00   0.00  -0.00
  25   1    -0.15   0.65  -0.19     0.00  -0.00   0.00     0.00  -0.00   0.00
  26   1    -0.55   0.08  -0.33     0.00  -0.00   0.00     0.00  -0.00   0.00
  27   7     0.01   0.00   0.00     0.00  -0.00   0.00     0.00   0.00  -0.00
  28   1    -0.05   0.01  -0.01    -0.00  -0.00  -0.00    -0.00   0.00  -0.00
  29   1    -0.01  -0.01  -0.00    -0.00  -0.00  -0.00    -0.00  -0.00   0.00
  30   6    -0.00   0.00  -0.00     0.00   0.01  -0.01     0.00   0.00  -0.00
  31   8     0.00  -0.00   0.00    -0.00  -0.00   0.00    -0.00  -0.00   0.00
  32   7    -0.00  -0.00   0.00     0.01   0.01  -0.00     0.00   0.00   0.00
  33   1    -0.00  -0.00  -0.00    -0.00  -0.00  -0.01    -0.00  -0.00  -0.01
  34   1     0.00   0.00  -0.00    -0.05  -0.05   0.01    -0.01  -0.00   0.00
  35   7     0.00   0.00  -0.00     0.13   0.21  -0.17     0.00   0.01  -0.00
  36   1    -0.00  -0.00   0.00    -0.43  -0.53   0.05    -0.01  -0.01   0.00
  37   1    -0.00  -0.00   0.00    -0.05  -0.28   0.60    -0.00  -0.01   0.01
  38   6    -0.00   0.00   0.00     0.00   0.00   0.00    -0.00   0.01  -0.01
  39   8     0.00  -0.00  -0.00    -0.00  -0.00  -0.00     0.00  -0.00   0.00
  40   7     0.00  -0.00  -0.00    -0.00   0.00   0.00    -0.00   0.02   0.00
  41   1    -0.00   0.00   0.00    -0.00  -0.00  -0.01    -0.00  -0.00  -0.01
  42   1    -0.00   0.00   0.00     0.00  -0.00  -0.00     0.02  -0.07  -0.00
  43   7     0.00   0.00  -0.00     0.00  -0.01   0.00    -0.06   0.26  -0.13
  44   1    -0.00   0.00   0.00    -0.00   0.02   0.00     0.15  -0.63  -0.07
  45   1     0.00  -0.00   0.00    -0.00   0.01  -0.01     0.08  -0.37   0.58
  46   6    -0.00   0.00  -0.00     0.00  -0.00   0.00     0.00  -0.00   0.00
  47   8    -0.00  -0.00   0.00     0.00  -0.00   0.00    -0.00   0.00  -0.00
  48   7    -0.00   0.00  -0.00    -0.00   0.00  -0.00     0.00  -0.00   0.00
  49   1     0.00  -0.00  -0.00     0.00  -0.00  -0.00    -0.00   0.00   0.00
  50   1     0.00  -0.00   0.00     0.00  -0.00   0.00    -0.00   0.00  -0.00
  51   7    -0.00   0.00  -0.00     0.00  -0.00   0.00    -0.00   0.00  -0.00
  52   1     0.00  -0.00   0.01    -0.00   0.00  -0.00     0.00  -0.00   0.00
  53   1     0.00   0.00   0.01    -0.00  -0.00  -0.00     0.00   0.00   0.00
