 Entering Gaussian System
 *********************************************
 Gaussian 98:
 frequency output generated by the xtb code
 *********************************************
                         Standard orientation:
 --------------------------------------------------------------------
  Center     Atomic     Atomic              Coordinates (Angstroms)
  Number     Number      Type              X           Y           Z
 --------------------------------------------------------------------
    1          8             0       -1.359518   -1.527714   -1.417538
    2          6             0       -2.195182   -0.516245   -1.890980
    3          1             0       -2.492329   -0.798016   -2.904226
    4          1             0       -3.110913   -0.455507   -1.282038
    5          6             0       -1.561577    0.882075   -1.844504
    6          1             0       -1.187466    1.037666   -0.828505
    7          1             0       -2.339933    1.618762   -2.054540
    8          7             0       -0.428193    1.132648   -2.771293
    9          6             0        0.705100    0.238977   -2.473683
   10          1             0        1.062326    0.438177   -1.465156
   11          1             0        1.505264    0.457189   -3.178929
   12          1             0        0.398905   -0.800126   -2.557166
   13          6             0        0.017087    2.525250   -2.581592
   14          1             0        0.371628    2.660501   -1.561917
   15          1             0       -0.795563    3.217018   -2.790456
   16          1             0        0.849353    2.713762   -3.260816
   17          6             0       -0.811760    0.954538   -4.179530
   18          1             0       -1.676512    1.571088   -4.418783
   19          1             0       -1.044090   -0.088090   -4.382122
   20          1             0        0.028373    1.252841   -4.805416
   21          1             0       -1.007905   -1.229748   -0.541916
   22          6             0        2.322633    1.762751    0.905092
   23          8             0        1.976452    1.978696   -0.252289
   24          7             0        3.485851    2.266835    1.401930
   25          1             0        3.956236    2.972335    0.862524
   26          1             0        3.685338    2.234975    2.385747
   27          7             0        1.586545    1.019100    1.753841
   28          1             0        1.975309    0.728780    2.633330
   29          1             0        0.790169    0.491221    1.392717
   30          6             0        3.571441    2.293144   -3.827395
   31          8             0        2.467343    2.002855   -4.272117
   32          7             0        3.797039    2.505800   -2.510572
   33          1             0        3.074338    2.311263   -1.824989
   34          1             0        4.736290    2.620648   -2.175488
   35          7             0        4.652492    2.415794   -4.640014
   36          1             0        5.523295    2.793667   -4.314149
   37          1             0        4.495731    2.385004   -5.631898
   38          6             0       -3.328982   -3.678446    5.074594
   39          8             0       -2.795374   -2.914072    4.280401
   40          7             0       -3.505403   -4.993394    4.802264
   41          1             0       -3.085635   -5.373617    3.972756
   42          1             0       -3.843092   -5.636791    5.494530
   43          7             0       -3.779785   -3.262927    6.281701
   44          1             0       -4.316166   -3.861942    6.882332
   45          1             0       -3.776690   -2.278255    6.479944
   46          6             0       -1.209855   -1.170682    1.880234
   47          8             0       -0.659271   -0.516491    0.977103
   48          7             0       -1.869801   -2.312187    1.641319
   49          1             0       -1.903069   -2.693536    0.711664
   50          1             0       -2.304252   -2.792297    2.418279
   51          7             0       -1.168474   -0.787362    3.169594
   52          1             0       -1.692989   -1.321328    3.847374
   53          1             0       -0.808907    0.118140    3.410451
 --------------------------------------------------------------------
     1 basis functions        1 primitive gaussians
     1 alpha electrons        1 beta electrons

 Harmonic frequencies (cm**-1), IR intensities (km*mol⁻¹),
 Raman scattering activities (A**4/amu), Raman depolarization ratios,
 reduced masses (AMU), force constants (mDyne/A) and normal coordinates:
                      1                      2                      3
                        a                      a                      a 
 Frequencies --     8.6791                 9.4835                14.7383
 Red. masses --    12.3615                11.0133                12.1675
 Frc consts  --     0.0000                 0.0000                 0.0000
 IR Inten    --     0.6180                 0.1687                 1.8039
 Raman Activ --     0.0000                 0.0000                 0.0000
 Depolar     --     0.0000                 0.0000                 0.0000
 Atom AN      X      Y      Z        X      Y      Z        X      Y      Z
   1   8     0.18  -0.18  -0.03     0.07  -0.07  -0.02    -0.08  -0.01  -0.20
   2   6     0.10  -0.18   0.02     0.04  -0.08  -0.02    -0.04   0.01  -0.19
   3   1     0.03  -0.05   0.00     0.01  -0.02  -0.01     0.00   0.01  -0.06
   4   1     0.03  -0.07   0.01     0.01  -0.03  -0.01    -0.02  -0.00  -0.07
   5   6     0.03  -0.15   0.06     0.01  -0.07  -0.02    -0.04   0.00  -0.12
   6   1     0.01  -0.05   0.02    -0.00  -0.02  -0.00    -0.03  -0.01  -0.03
   7   1    -0.00  -0.05   0.03    -0.00  -0.02  -0.01    -0.01   0.00  -0.04
   8   7    -0.00  -0.05   0.06     0.01  -0.04  -0.01     0.01   0.03  -0.06
   9   6     0.05  -0.01  -0.01     0.03  -0.01   0.00    -0.01   0.01  -0.03
  10   1     0.02  -0.01  -0.00     0.00  -0.00   0.00    -0.02  -0.01  -0.00
  11   1     0.01   0.02  -0.01     0.01   0.00   0.00     0.01   0.01   0.00
  12   1     0.03  -0.01  -0.02     0.02  -0.01   0.00    -0.00   0.01  -0.02
  13   6    -0.06  -0.04   0.12    -0.02  -0.03  -0.00     0.01   0.02   0.02
  14   1    -0.01  -0.02   0.03    -0.01  -0.01  -0.00    -0.01  -0.01   0.01
  15   1    -0.03  -0.02   0.05    -0.01  -0.01  -0.00     0.01   0.01   0.00
  16   1    -0.03   0.01   0.03    -0.01  -0.00   0.00     0.01   0.01   0.02
  17   6    -0.02   0.00   0.05     0.03  -0.05  -0.01     0.07   0.09  -0.08
  18   1    -0.01  -0.01   0.03     0.00  -0.02  -0.00     0.03   0.03  -0.03
  19   1     0.01   0.00   0.00     0.01  -0.02  -0.00     0.02   0.03  -0.04
  20   1    -0.01   0.02   0.01     0.01  -0.01  -0.00     0.03   0.03  -0.01
  21   1     0.05  -0.05  -0.01     0.01  -0.02  -0.00    -0.03  -0.01  -0.04
  22   6     0.11  -0.11  -0.01    -0.01   0.01   0.00    -0.05  -0.13   0.03
  23   8     0.07  -0.06   0.01    -0.03   0.02   0.01    -0.04  -0.06   0.05
  24   7     0.14  -0.14  -0.03    -0.03   0.04   0.01    -0.05  -0.22   0.08
  25   1     0.03  -0.03  -0.00    -0.01   0.01   0.00    -0.00  -0.05   0.04
  26   1     0.05  -0.05  -0.01    -0.01   0.01   0.00    -0.02  -0.08   0.02
  27   7     0.16  -0.17  -0.02     0.00  -0.01  -0.00    -0.10  -0.17  -0.02
  28   1     0.05  -0.06  -0.02     0.00  -0.00  -0.00    -0.03  -0.07  -0.01
  29   1     0.04  -0.04  -0.01     0.00  -0.01  -0.00    -0.03  -0.03  -0.02
  30   6    -0.10   0.20  -0.04    -0.01   0.05   0.02     0.04   0.06   0.10
  31   8    -0.12   0.18  -0.00    -0.00   0.03   0.01     0.06   0.07   0.08
  32   7    -0.06   0.15  -0.04    -0.03   0.07   0.02     0.02   0.03   0.12
  33   1    -0.00   0.02  -0.00    -0.01   0.01   0.00     0.00   0.00   0.03
  34   1    -0.01   0.05  -0.02    -0.01   0.03   0.01     0.00   0.01   0.04
  35   7    -0.16   0.32  -0.09    -0.01   0.09   0.03     0.06   0.10   0.14
  36   1    -0.04   0.09  -0.03    -0.01   0.03   0.01     0.01   0.03   0.04
  37   1    -0.05   0.10  -0.02    -0.00   0.02   0.01     0.02   0.03   0.04
  38   6    -0.15   0.13   0.01    -0.02   0.04   0.01     0.14   0.07   0.14
  39   8    -0.08   0.07  -0.01     0.02  -0.01  -0.01     0.01  -0.02  -0.04
  40   7    -0.13   0.12   0.12    -0.59   0.16  -0.19     0.20   0.03   0.38
  41   1    -0.01   0.01   0.05    -0.27   0.04  -0.11     0.03  -0.02   0.10
  42   1    -0.05   0.05   0.04    -0.17   0.04  -0.06     0.08   0.03   0.14
  43   7    -0.29   0.26  -0.08     0.50  -0.03   0.23     0.28   0.24   0.14
  44   1    -0.09   0.08  -0.02     0.13   0.01   0.08     0.10   0.08   0.08
  45   1    -0.08   0.07  -0.05     0.25  -0.02   0.11     0.06   0.07  -0.01
  46   6     0.08  -0.08  -0.02     0.01  -0.02  -0.02    -0.12  -0.04  -0.13
  47   8     0.15  -0.15  -0.02     0.03  -0.04  -0.02    -0.15  -0.05  -0.16
  48   7     0.05  -0.07  -0.00    -0.01  -0.01  -0.02    -0.13  -0.04  -0.13
  49   1     0.02  -0.03   0.00     0.00  -0.01  -0.00    -0.03  -0.01  -0.03
  50   1     0.00  -0.01  -0.00    -0.00  -0.00  -0.00    -0.03  -0.02  -0.03
  51   7     0.05  -0.05  -0.03     0.01  -0.02  -0.02    -0.12  -0.04  -0.14
  52   1     0.00  -0.00  -0.01     0.00  -0.01  -0.00    -0.03  -0.01  -0.04
  53   1     0.02  -0.02  -0.01     0.01  -0.01  -0.00    -0.03  -0.01  -0.04
                      4                      5                      6
                        a                      a                      a 
 Frequencies --    20.5307                29.5380                32.9443
 Red. masses --    12.0731                12.3746                12.0795
 Frc consts  --     0.0000                 0.0000                 0.0000
 IR Inten    --     2.8394                 0.7865                 0.6225
 Raman Activ --     0.0000                 0.0000                 0.0000
 Depolar     --     0.0000                 0.0000                 0.0000
 Atom AN      X      Y      Z        X      Y      Z        X      Y      Z
   1   8    -0.08   0.09  -0.06    -0.20  -0.04  -0.06     0.12   0.07   0.09
   2   6    -0.06   0.14   0.07    -0.15   0.02   0.01     0.07   0.09   0.17
   3   1    -0.05   0.06   0.03    -0.06   0.01   0.01    -0.02   0.02   0.06
   4   1     0.00   0.05   0.05    -0.03   0.01   0.02     0.05   0.04   0.08
   5   6     0.01   0.11   0.06    -0.09  -0.01   0.01     0.13   0.06   0.06
   6   1     0.03   0.02   0.01    -0.03  -0.00   0.00     0.08   0.02   0.00
   7   1     0.01   0.04   0.03    -0.02   0.00  -0.00     0.04   0.03   0.04
   8   7    -0.04   0.07  -0.01    -0.07  -0.07   0.02     0.02   0.00  -0.10
   9   6    -0.03   0.05  -0.04    -0.07  -0.03   0.12     0.05   0.01  -0.18
  10   1     0.00   0.02  -0.02    -0.04   0.01   0.04     0.04   0.02  -0.06
  11   1    -0.02   0.01  -0.02    -0.01  -0.01   0.04    -0.01  -0.01  -0.08
  12   1    -0.02   0.02  -0.00    -0.01  -0.01   0.04     0.01   0.00  -0.03
  13   6     0.00   0.06  -0.07    -0.09  -0.05  -0.07     0.05   0.01  -0.22
  14   1     0.00   0.03  -0.02    -0.04   0.01  -0.02     0.03   0.02  -0.07
  15   1     0.00   0.02  -0.03    -0.02  -0.02  -0.05     0.02   0.00  -0.07
  16   1    -0.00   0.00  -0.03    -0.02  -0.03  -0.01     0.01  -0.01  -0.08
  17   6    -0.11   0.03   0.02    -0.02  -0.17   0.02    -0.15  -0.07  -0.04
  18   1    -0.04   0.01   0.01    -0.01  -0.06  -0.01    -0.06  -0.03   0.01
  19   1    -0.03   0.01   0.02     0.00  -0.06   0.03    -0.05  -0.03   0.01
  20   1    -0.04   0.00  -0.01    -0.00  -0.06   0.01    -0.07  -0.03  -0.05
  21   1     0.00   0.00  -0.01    -0.02  -0.02  -0.02     0.04   0.00   0.02
  22   6    -0.08   0.10  -0.01     0.02  -0.00  -0.03    -0.01  -0.03  -0.12
  23   8    -0.11   0.07  -0.01    -0.16   0.20   0.06    -0.13  -0.05  -0.10
  24   7    -0.14   0.24  -0.01     0.05  -0.01  -0.09     0.00   0.04  -0.23
  25   1    -0.06   0.08  -0.00    -0.03   0.04  -0.00    -0.03   0.02  -0.07
  26   1    -0.04   0.07  -0.00     0.05  -0.05  -0.03     0.02   0.01  -0.07
  27   7    -0.00   0.03  -0.01     0.20  -0.23  -0.09     0.12  -0.09  -0.07
  28   1     0.01   0.02  -0.00     0.09  -0.10  -0.05     0.05  -0.01  -0.02
  29   1     0.01  -0.01  -0.00     0.05  -0.05  -0.02     0.03  -0.03   0.00
  30   6     0.04  -0.06   0.03    -0.00  -0.01   0.17     0.09   0.09  -0.01
  31   8     0.04   0.00  -0.01     0.05  -0.15   0.16     0.17   0.04  -0.10
  32   7    -0.01  -0.04   0.04    -0.10   0.18   0.17    -0.02   0.12   0.01
  33   1    -0.01   0.00   0.00    -0.04   0.05   0.04    -0.01   0.01  -0.01
  34   1    -0.00  -0.03   0.02    -0.04   0.08   0.06    -0.01   0.03   0.02
  35   7     0.08  -0.15   0.08     0.04  -0.05   0.23     0.16   0.16   0.08
  36   1     0.02  -0.05   0.03    -0.00   0.02   0.06     0.03   0.06   0.04
  37   1     0.03  -0.04   0.02     0.03  -0.05   0.06     0.07   0.04   0.02
  38   6    -0.04   0.01   0.02     0.05   0.10  -0.07    -0.09  -0.06   0.09
  39   8     0.15  -0.22  -0.07     0.03   0.24   0.01    -0.34  -0.00   0.01
  40   7    -0.21  -0.01   0.23     0.14   0.13  -0.21     0.05  -0.09   0.14
  41   1    -0.05  -0.06   0.09     0.05   0.06  -0.06    -0.01  -0.01   0.02
  42   1    -0.10   0.04   0.08     0.04   0.01  -0.07     0.06  -0.03   0.05
  43   7    -0.09   0.29  -0.09    -0.01  -0.03  -0.05     0.03  -0.12   0.16
  44   1    -0.06   0.12  -0.01     0.00  -0.03  -0.03     0.05  -0.05   0.06
  45   1     0.01   0.09  -0.07    -0.02  -0.01   0.01    -0.03  -0.03   0.04
  46   6     0.16  -0.19  -0.04     0.09   0.00  -0.07    -0.07  -0.05   0.09
  47   8     0.14  -0.16  -0.02     0.14  -0.10  -0.14     0.07  -0.10   0.16
  48   7     0.16  -0.19  -0.09    -0.10   0.10  -0.01    -0.27   0.08   0.01
  49   1     0.03  -0.03  -0.03    -0.06   0.03  -0.00    -0.07   0.03  -0.00
  50   1     0.05  -0.06  -0.03    -0.03   0.05   0.01    -0.09   0.02  -0.01
  51   7     0.22  -0.30  -0.02     0.27   0.01  -0.08    -0.08  -0.12   0.11
  52   1     0.06  -0.09  -0.01     0.06   0.03  -0.01    -0.05  -0.02   0.02
  53   1     0.06  -0.08   0.01     0.11  -0.01  -0.03     0.02  -0.05   0.05
                      7                      8                      9
                        a                      a                      a 
 Frequencies --    33.6347                41.0306                45.8696
 Red. masses --    12.7878                12.0812                12.5458
 Frc consts  --     0.0000                 0.0000                 0.0000
 IR Inten    --     2.3296                 4.8164                 2.8274
 Raman Activ --     0.0000                 0.0000                 0.0000
 Depolar     --     0.0000                 0.0000                 0.0000
 Atom AN      X      Y      Z        X      Y      Z        X      Y      Z
   1   8     0.08  -0.10  -0.10    -0.19   0.06   0.02    -0.20   0.01  -0.12
   2   6     0.04  -0.04   0.07    -0.09   0.13   0.03    -0.10   0.12   0.01
   3   1    -0.01   0.01   0.02    -0.03   0.05   0.01    -0.06   0.06   0.00
   4   1     0.02  -0.03   0.04    -0.02   0.06   0.01    -0.01   0.05   0.02
   5   6     0.04  -0.05   0.14     0.03   0.07   0.03     0.06   0.05   0.03
   6   1     0.03  -0.04   0.04    -0.00   0.02   0.01     0.04  -0.01   0.00
   7   1     0.01  -0.01   0.07     0.03   0.04  -0.01     0.03   0.04   0.03
   8   7    -0.01   0.02   0.10     0.11  -0.05   0.09     0.01  -0.02  -0.05
   9   6     0.02   0.01  -0.01     0.06  -0.06   0.23    -0.03  -0.11  -0.13
  10   1     0.02  -0.01  -0.01     0.00   0.00   0.07     0.01  -0.05  -0.04
  11   1    -0.01   0.02  -0.01     0.03  -0.04   0.07    -0.01  -0.04  -0.05
  12   1     0.01   0.00  -0.02     0.01  -0.02   0.08    -0.03  -0.02  -0.04
  13   6    -0.01   0.01   0.15     0.14  -0.04   0.00     0.13  -0.06  -0.04
  14   1     0.01  -0.01   0.04     0.03   0.01  -0.00     0.05  -0.03  -0.02
  15   1    -0.01   0.00   0.07     0.05  -0.01  -0.02     0.05   0.00   0.00
  16   1    -0.01   0.02   0.04     0.04  -0.03   0.00     0.03  -0.03  -0.02
  17   6    -0.08   0.10   0.10     0.20  -0.15   0.07    -0.09   0.04  -0.02
  18   1    -0.03   0.03   0.05     0.07  -0.04  -0.01    -0.02   0.03   0.02
  19   1    -0.02   0.03   0.02     0.05  -0.05   0.04    -0.05   0.02  -0.01
  20   1    -0.03   0.04   0.02     0.07  -0.07   0.03    -0.03   0.00  -0.02
  21   1     0.04  -0.04  -0.03    -0.03   0.01   0.00    -0.04  -0.03  -0.03
  22   6    -0.01   0.07   0.08     0.05   0.06   0.08    -0.10  -0.08   0.03
  23   8     0.06  -0.05   0.05     0.17   0.11   0.07     0.06  -0.29  -0.05
  24   7    -0.13   0.27   0.15    -0.00   0.07   0.21    -0.20   0.03   0.13
  25   1    -0.05   0.08   0.04     0.02   0.02   0.07    -0.03  -0.02   0.02
  26   1    -0.05   0.10   0.05    -0.02   0.01   0.06    -0.09   0.04   0.04
  27   7     0.02   0.03   0.08    -0.01   0.03   0.01    -0.21   0.03   0.04
  28   1    -0.00   0.03   0.03    -0.02   0.00   0.01    -0.08   0.04   0.03
  29   1     0.03  -0.03   0.01     0.01   0.01  -0.01    -0.03  -0.02  -0.00
  30   6    -0.04  -0.07  -0.03    -0.03   0.00  -0.15     0.07   0.06  -0.02
  31   8    -0.11   0.12  -0.00     0.02  -0.36  -0.08     0.12  -0.06  -0.04
  32   7     0.04  -0.20  -0.02    -0.03   0.21  -0.20     0.07  -0.05  -0.01
  33   1     0.01  -0.03  -0.00     0.02   0.03  -0.04     0.03  -0.06  -0.01
  34   1     0.02  -0.10  -0.01    -0.01   0.14  -0.07     0.01   0.02  -0.00
  35   7    -0.05  -0.20  -0.06    -0.12   0.22  -0.24     0.04   0.35  -0.03
  36   1     0.00  -0.09  -0.02    -0.05   0.11  -0.09     0.00   0.11   0.00
  37   1    -0.03  -0.03  -0.02    -0.04   0.01  -0.06     0.01   0.11  -0.01
  38   6    -0.01   0.09  -0.07    -0.03  -0.04  -0.01     0.01   0.09   0.05
  39   8    -0.37   0.23  -0.19    -0.13  -0.08  -0.11     0.04   0.24   0.22
  40   7     0.21   0.06  -0.05    -0.00  -0.06   0.10     0.05   0.13  -0.15
  41   1     0.02   0.04  -0.04    -0.02  -0.03   0.02     0.03   0.07  -0.05
  42   1     0.12  -0.00   0.00     0.02  -0.01   0.04     0.01   0.01  -0.07
  43   7     0.18  -0.01   0.04     0.04   0.03   0.00    -0.08  -0.09   0.09
  44   1     0.11  -0.03   0.03     0.03   0.01   0.02    -0.03  -0.05  -0.01
  45   1    -0.00  -0.00   0.01     0.00   0.01  -0.02    -0.03  -0.03   0.06
  46   6     0.03  -0.07  -0.10    -0.04  -0.04  -0.04     0.08  -0.09   0.01
  47   8     0.23  -0.20  -0.09    -0.01  -0.03  -0.01     0.00  -0.18  -0.09
  48   7    -0.10   0.01  -0.13    -0.19   0.05  -0.11     0.15  -0.17   0.18
  49   1    -0.02  -0.00  -0.03    -0.07   0.03  -0.04     0.01  -0.06   0.05
  50   1    -0.07   0.03  -0.04    -0.05   0.01  -0.04     0.03  -0.01   0.06
  51   7    -0.04  -0.02  -0.13     0.05  -0.16  -0.01     0.15   0.04  -0.02
  52   1    -0.05   0.02  -0.04     0.00  -0.04  -0.01     0.04   0.03   0.01
  53   1     0.02  -0.02  -0.03     0.04  -0.06   0.01     0.02   0.03  -0.04
                     10                     11                     12
                        a                      a                      a 
 Frequencies --    49.0887                56.0777                62.7251
 Red. masses --    12.3140                12.5024                12.6845
 Frc consts  --     0.0000                 0.0000                 0.0000
 IR Inten    --     0.1764                 2.5569                 2.6701
 Raman Activ --     0.0000                 0.0000                 0.0000
 Depolar     --     0.0000                 0.0000                 0.0000
 Atom AN      X      Y      Z        X      Y      Z        X      Y      Z
   1   8     0.08  -0.06  -0.04     0.07   0.03  -0.16     0.00   0.06   0.07
   2   6     0.07  -0.09  -0.11     0.08   0.05  -0.12     0.02  -0.05  -0.17
   3   1     0.05  -0.03  -0.04     0.03   0.03  -0.04     0.06  -0.05  -0.06
   4   1     0.01  -0.03  -0.05     0.02   0.01  -0.04    -0.03  -0.02  -0.10
   5   6     0.01  -0.06  -0.07     0.07   0.05  -0.05    -0.09  -0.00  -0.19
   6   1    -0.01  -0.02  -0.02     0.01   0.01  -0.01    -0.06   0.03  -0.04
   7   1    -0.00  -0.03  -0.02     0.02   0.01  -0.01    -0.03  -0.02  -0.09
   8   7     0.03   0.00  -0.04     0.10   0.11  -0.01     0.00   0.03  -0.07
   9   6     0.03  -0.00  -0.06     0.11   0.14   0.04    -0.01   0.04   0.04
  10   1     0.01  -0.01  -0.01     0.03   0.06   0.01    -0.03   0.01   0.02
  11   1     0.01   0.01  -0.01     0.03   0.03   0.01     0.01   0.01   0.03
  12   1     0.01  -0.00  -0.03     0.04   0.04   0.03     0.00   0.01   0.01
  13   6     0.00  -0.00   0.05     0.02   0.12  -0.01    -0.04   0.03  -0.01
  14   1    -0.00  -0.02   0.02    -0.01   0.04  -0.00    -0.03   0.01   0.00
  15   1    -0.00  -0.00   0.02    -0.00   0.02  -0.01    -0.01   0.00  -0.01
  16   1     0.00   0.01   0.02     0.01   0.04   0.00    -0.00   0.02   0.01
  17   6     0.06   0.07  -0.05     0.16   0.07  -0.03     0.16   0.03  -0.11
  18   1     0.02   0.02  -0.01     0.04   0.00  -0.02     0.05   0.01  -0.06
  19   1     0.02   0.02  -0.03     0.07   0.02  -0.01     0.05   0.01  -0.04
  20   1     0.02   0.03  -0.00     0.05   0.03   0.00     0.07   0.01  -0.00
  21   1     0.01  -0.01  -0.01    -0.01  -0.02  -0.02    -0.03   0.04   0.02
  22   6    -0.04   0.01   0.03    -0.03   0.01   0.01    -0.03   0.02  -0.01
  23   8     0.00  -0.07   0.01    -0.06   0.27   0.07    -0.06   0.05   0.00
  24   7    -0.11   0.13   0.08    -0.09   0.03   0.13     0.07  -0.14  -0.07
  25   1    -0.04   0.04   0.02    -0.05   0.05   0.08     0.04  -0.05  -0.03
  26   1    -0.04   0.05   0.02    -0.02  -0.05   0.03     0.03  -0.04  -0.02
  27   7    -0.03  -0.01   0.02     0.06  -0.28  -0.16    -0.11   0.16   0.05
  28   1    -0.01   0.01   0.01     0.02  -0.11  -0.06    -0.02   0.03   0.01
  29   1     0.00  -0.02   0.00     0.01  -0.06  -0.06    -0.04   0.05   0.02
  30   6    -0.01   0.01  -0.03    -0.03   0.00  -0.12    -0.04  -0.00   0.01
  31   8    -0.04   0.14  -0.04    -0.06   0.10  -0.15    -0.06   0.07   0.01
  32   7     0.04  -0.15  -0.01    -0.06   0.15  -0.14    -0.01  -0.12   0.03
  33   1     0.01  -0.03  -0.00    -0.02   0.07  -0.04    -0.01  -0.02   0.01
  34   1     0.01  -0.06  -0.00    -0.02   0.02  -0.03    -0.00  -0.03   0.01
  35   7    -0.02   0.01  -0.04     0.02  -0.27  -0.09    -0.05   0.02   0.01
  36   1     0.01  -0.03  -0.01     0.01  -0.09  -0.03    -0.01  -0.01   0.01
  37   1    -0.01   0.03  -0.01     0.01  -0.09  -0.03    -0.02   0.02   0.00
  38   6     0.05  -0.03   0.07    -0.06  -0.02   0.14    -0.11   0.05  -0.00
  39   8     0.29  -0.06   0.21    -0.05   0.08   0.27    -0.41   0.16  -0.09
  40   7    -0.05   0.00  -0.02    -0.03   0.00   0.01     0.07   0.02   0.02
  41   1     0.03  -0.00   0.02     0.01   0.03  -0.00    -0.02   0.03  -0.02
  42   1    -0.05   0.00  -0.02    -0.01  -0.02  -0.02     0.07  -0.01   0.01
  43   7    -0.12  -0.03   0.01    -0.12  -0.16   0.18     0.04  -0.04   0.09
  44   1    -0.07  -0.00  -0.03    -0.03  -0.06   0.03     0.05  -0.03   0.04
  45   1    -0.01  -0.01   0.02    -0.04  -0.05   0.08    -0.04  -0.01   0.02
  46   6    -0.05   0.04   0.01    -0.03  -0.10   0.04     0.12  -0.07   0.09
  47   8    -0.02  -0.02  -0.01    -0.08  -0.19  -0.02    -0.08   0.10   0.10
  48   7    -0.54   0.33  -0.03     0.05  -0.19   0.18     0.17  -0.08   0.06
  49   1    -0.17   0.09  -0.01     0.01  -0.07   0.06    -0.03   0.03  -0.01
  50   1    -0.10   0.07   0.01     0.01  -0.03   0.06     0.02  -0.02   0.00
  51   7     0.33  -0.16   0.06    -0.05   0.03   0.01     0.44  -0.32   0.17
  52   1     0.10  -0.04   0.03    -0.01   0.02   0.02     0.08  -0.07   0.03
  53   1     0.18  -0.08   0.03    -0.03   0.02  -0.03     0.06  -0.06   0.05
                     13                     14                     15
                        a                      a                      a 
 Frequencies --    68.0433                72.9977                76.9596
 Red. masses --    12.3437                12.2532                12.5035
 Frc consts  --     0.0000                 0.0000                 0.0000
 IR Inten    --     0.8934                 3.9161                 3.8727
 Raman Activ --     0.0000                 0.0000                 0.0000
 Depolar     --     0.0000                 0.0000                 0.0000
 Atom AN      X      Y      Z        X      Y      Z        X      Y      Z
   1   8    -0.03   0.07   0.02    -0.18  -0.02   0.04    -0.07  -0.08  -0.10
   2   6    -0.02   0.06  -0.00    -0.11  -0.07  -0.15    -0.08  -0.00   0.08
   3   1    -0.01   0.01   0.00     0.02  -0.04  -0.05    -0.06   0.02   0.03
   4   1    -0.00   0.02  -0.00    -0.06  -0.02  -0.09    -0.00  -0.00   0.06
   5   6    -0.01   0.06  -0.04    -0.16  -0.05  -0.11    -0.03  -0.03   0.10
   6   1    -0.01   0.03  -0.01    -0.08  -0.01  -0.02     0.00  -0.02   0.03
   7   1     0.00   0.01  -0.03    -0.05  -0.02  -0.06    -0.00   0.00   0.04
   8   7     0.03   0.00  -0.02    -0.08  -0.02  -0.00    -0.06  -0.04   0.07
   9   6     0.04   0.05   0.12    -0.13  -0.09  -0.00     0.01   0.07   0.13
  10   1    -0.01   0.04   0.03    -0.06  -0.06   0.01     0.00   0.05   0.03
  11   1     0.02   0.00   0.04    -0.02  -0.01   0.03    -0.00   0.02   0.03
  12   1     0.02   0.01   0.05    -0.05  -0.02  -0.04     0.02   0.01   0.06
  13   6    -0.02   0.03  -0.11    -0.02  -0.06   0.15    -0.13   0.00  -0.06
  14   1    -0.02   0.04  -0.03    -0.01  -0.05   0.05    -0.05   0.04  -0.02
  15   1    -0.01  -0.00  -0.06     0.01  -0.00   0.05    -0.04  -0.02  -0.05
  16   1     0.00  -0.00  -0.03     0.01  -0.01   0.06    -0.03  -0.01  -0.01
  17   6     0.11  -0.13  -0.02     0.02   0.13  -0.05    -0.05  -0.20   0.09
  18   1     0.03  -0.05  -0.03     0.03   0.07  -0.02    -0.04  -0.10   0.02
  19   1     0.05  -0.05   0.02    -0.02   0.05  -0.05     0.02  -0.07   0.05
  20   1     0.04  -0.04   0.00     0.03   0.03   0.01    -0.03  -0.04   0.01
  21   1    -0.01   0.02   0.01    -0.06   0.02   0.01    -0.01  -0.05  -0.02
  22   6    -0.00   0.02   0.02     0.15   0.05  -0.14     0.02   0.12  -0.11
  23   8    -0.16   0.16   0.10     0.23  -0.09  -0.21     0.12   0.29  -0.12
  24   7    -0.03   0.13  -0.01    -0.03   0.39  -0.05     0.13  -0.19  -0.05
  25   1    -0.06   0.08   0.01    -0.03   0.12  -0.02     0.08  -0.07   0.00
  26   1     0.02   0.00  -0.01    -0.02   0.12  -0.01     0.02  -0.07  -0.01
  27   7     0.21  -0.25  -0.03     0.28  -0.12  -0.21    -0.20   0.28  -0.15
  28   1     0.08  -0.08  -0.02     0.05   0.02  -0.03    -0.06   0.04  -0.05
  29   1     0.04  -0.05  -0.00     0.08  -0.04  -0.05    -0.05   0.08  -0.06
  30   6    -0.03  -0.06  -0.01     0.10   0.03   0.08     0.14   0.07   0.02
  31   8    -0.04   0.04  -0.06     0.06   0.01   0.24     0.06   0.27   0.17
  32   7     0.05  -0.65   0.06     0.24   0.09   0.05     0.36  -0.12   0.01
  33   1    -0.00  -0.14   0.01     0.08   0.01   0.03     0.10   0.02   0.02
  34   1     0.01  -0.13   0.02     0.08   0.01  -0.01     0.11  -0.05  -0.02
  35   7    -0.10   0.37  -0.03     0.01   0.02  -0.04     0.05   0.02  -0.12
  36   1    -0.01   0.04   0.02     0.01   0.02  -0.04     0.04  -0.03  -0.06
  37   1    -0.03   0.17  -0.01    -0.03   0.00  -0.01    -0.03   0.04  -0.03
  38   6     0.01  -0.01  -0.01    -0.07  -0.06   0.06    -0.02  -0.03   0.06
  39   8     0.02  -0.03  -0.01    -0.13  -0.07   0.04    -0.00  -0.01   0.11
  40   7    -0.01  -0.01   0.01    -0.05  -0.07   0.09    -0.03  -0.02   0.03
  41   1    -0.00  -0.01   0.00    -0.02  -0.02   0.02     0.00  -0.00   0.01
  42   1    -0.00   0.00   0.00    -0.00  -0.02   0.03    -0.01  -0.01   0.00
  43   7     0.01   0.01  -0.01    -0.03  -0.07   0.08    -0.05  -0.06   0.07
  44   1    -0.00   0.01  -0.00    -0.00  -0.02   0.03    -0.02  -0.02   0.01
  45   1     0.00   0.00  -0.01    -0.02  -0.02   0.02    -0.01  -0.02   0.03
  46   6    -0.01   0.03   0.01    -0.02   0.01   0.03    -0.03  -0.07  -0.05
  47   8     0.01   0.02   0.02    -0.06   0.04   0.03     0.00  -0.16  -0.09
  48   7     0.07  -0.02   0.01     0.05  -0.04   0.04    -0.11  -0.05  -0.00
  49   1     0.03  -0.01   0.00     0.01  -0.01   0.01    -0.03  -0.03   0.01
  50   1     0.02  -0.00   0.00     0.01  -0.01   0.01    -0.02  -0.00   0.01
  51   7    -0.11   0.08  -0.01    -0.04   0.01   0.03    -0.02  -0.03  -0.08
  52   1    -0.03   0.02  -0.00    -0.01   0.00   0.01    -0.00   0.00  -0.01
  53   1    -0.03   0.02  -0.00    -0.03   0.01   0.01     0.02  -0.01  -0.03
                     16                     17                     18
                        a                      a                      a 
 Frequencies --    92.2914               100.2051               108.5131
 Red. masses --    12.8940                12.9579                12.0658
 Frc consts  --     0.0000                 0.0000                 0.0000
 IR Inten    --     9.7242                 3.1217                14.5466
 Raman Activ --     0.0000                 0.0000                 0.0000
 Depolar     --     0.0000                 0.0000                 0.0000
 Atom AN      X      Y      Z        X      Y      Z        X      Y      Z
   1   8    -0.05   0.01   0.14    -0.25   0.08  -0.02    -0.16  -0.06   0.05
   2   6    -0.05   0.00   0.12    -0.12   0.10  -0.09     0.00   0.05   0.03
   3   1    -0.03  -0.01   0.04    -0.03   0.02  -0.03     0.01   0.04  -0.00
   4   1    -0.00   0.02   0.05    -0.04   0.06  -0.04    -0.01   0.03  -0.01
   5   6     0.00  -0.02   0.04    -0.03   0.06  -0.12     0.15  -0.02   0.16
   6   1     0.01   0.00   0.00    -0.02   0.03  -0.03     0.04  -0.04   0.05
   7   1     0.00  -0.00   0.01     0.01   0.03  -0.06     0.07   0.02   0.06
   8   7    -0.04  -0.09  -0.03     0.06  -0.05  -0.06     0.20  -0.05   0.21
   9   6     0.02  -0.00   0.02     0.02  -0.03   0.12     0.12  -0.14   0.17
  10   1     0.03   0.05  -0.01    -0.01   0.02   0.04     0.04  -0.05   0.05
  11   1    -0.01  -0.02  -0.02     0.02  -0.04   0.04     0.04  -0.05   0.05
  12   1     0.01  -0.01   0.06     0.00  -0.01   0.06     0.01  -0.03   0.04
  13   6    -0.07  -0.05  -0.17     0.03  -0.03  -0.12     0.21  -0.07   0.26
  14   1    -0.03   0.02  -0.05    -0.02   0.01  -0.03     0.05  -0.03   0.08
  15   1    -0.02  -0.03  -0.07     0.01  -0.02  -0.07     0.07  -0.01   0.07
  16   1    -0.02  -0.03  -0.05     0.02  -0.02  -0.02     0.07  -0.02   0.08
  17   6    -0.09  -0.25   0.01     0.20  -0.18  -0.07     0.22   0.04   0.17
  18   1    -0.05  -0.11   0.00     0.06  -0.07  -0.06     0.07   0.02   0.05
  19   1     0.01  -0.09   0.03     0.08  -0.06  -0.00     0.06   0.02   0.03
  20   1    -0.05  -0.06  -0.02     0.07  -0.06  -0.00     0.07   0.02   0.06
  21   1    -0.01   0.01   0.03    -0.04   0.02  -0.01    -0.04  -0.02   0.01
  22   6     0.00  -0.12   0.07     0.09  -0.04   0.06    -0.14  -0.02  -0.20
  23   8     0.14  -0.14   0.04     0.08  -0.31   0.02    -0.24  -0.05  -0.21
  24   7    -0.15   0.03   0.27     0.12   0.05  -0.08    -0.12   0.02  -0.33
  25   1    -0.04   0.03   0.10     0.03  -0.02  -0.07    -0.05   0.01  -0.11
  26   1    -0.08   0.00   0.08     0.04   0.08  -0.02    -0.01   0.01  -0.09
  27   7     0.02  -0.29  -0.06     0.08   0.17   0.24    -0.08  -0.02  -0.17
  28   1    -0.03  -0.06   0.01     0.03   0.08   0.07    -0.02   0.01  -0.04
  29   1    -0.00  -0.05  -0.03     0.04   0.01   0.07    -0.03  -0.00  -0.02
  30   6     0.05   0.13  -0.06    -0.10   0.11  -0.00    -0.03   0.06  -0.01
  31   8    -0.01   0.39  -0.05    -0.14   0.39  -0.10    -0.04   0.20  -0.06
  32   7     0.12   0.10  -0.06    -0.15   0.07   0.02    -0.06  -0.01   0.01
  33   1     0.03   0.04  -0.02    -0.05   0.00  -0.00    -0.03   0.00  -0.01
  34   1     0.04  -0.05  -0.02    -0.03  -0.07   0.02    -0.01  -0.04   0.01
  35   7     0.08  -0.13  -0.07    -0.01  -0.13   0.09     0.02  -0.03   0.04
  36   1     0.04  -0.06  -0.02     0.00  -0.06   0.04     0.01  -0.02   0.02
  37   1     0.01  -0.00  -0.02     0.01   0.00   0.02     0.01   0.02   0.01
  38   6     0.03   0.05  -0.10    -0.02  -0.04   0.06     0.04   0.04  -0.05
  39   8    -0.01   0.03  -0.17    -0.00  -0.05   0.08     0.05   0.04  -0.07
  40   7     0.05   0.04  -0.05    -0.04  -0.04   0.05     0.04   0.04  -0.05
  41   1    -0.00   0.01  -0.02    -0.00  -0.01   0.02     0.01   0.01  -0.02
  42   1     0.01   0.02  -0.01    -0.01  -0.01   0.01     0.00   0.01  -0.02
  43   7     0.08   0.10  -0.11    -0.04  -0.06   0.06     0.04   0.06  -0.07
  44   1     0.03   0.03  -0.01    -0.02  -0.01   0.01     0.01   0.02  -0.01
  45   1     0.02   0.03  -0.04    -0.01  -0.02   0.02     0.02   0.02  -0.02
  46   6    -0.05   0.06   0.05     0.07  -0.02  -0.03    -0.07  -0.01   0.02
  47   8    -0.27   0.23   0.04     0.27  -0.14  -0.01    -0.17   0.05   0.01
  48   7     0.08   0.00   0.04    -0.02   0.03  -0.03    -0.00  -0.05   0.02
  49   1    -0.02   0.04  -0.00     0.03  -0.02   0.00    -0.03   0.00  -0.00
  50   1     0.03  -0.01   0.01    -0.02   0.02  -0.01     0.00  -0.02   0.01
  51   7     0.13  -0.06   0.09    -0.12   0.10  -0.06    -0.00  -0.06   0.03
  52   1     0.04  -0.03   0.02    -0.03   0.03  -0.02     0.00  -0.02   0.01
  53   1    -0.02   0.00   0.02     0.01   0.01  -0.01    -0.02  -0.01   0.01
                     19                     20                     21
                        a                      a                      a 
 Frequencies --   119.5918               128.9952               130.8450
 Red. masses --    12.4480                12.6026                12.9210
 Frc consts  --     0.0000                 0.0000                 0.0000
 IR Inten    --     1.9338                11.7138                 3.3227
 Raman Activ --     0.0000                 0.0000                 0.0000
 Depolar     --     0.0000                 0.0000                 0.0000
 Atom AN      X      Y      Z        X      Y      Z        X      Y      Z
   1   8    -0.19  -0.14  -0.11     0.19   0.02  -0.24     0.04  -0.02  -0.07
   2   6    -0.07  -0.01  -0.04     0.07   0.06   0.03     0.03   0.03   0.05
   3   1    -0.03   0.02  -0.01    -0.02   0.05   0.01    -0.02   0.03   0.02
   4   1    -0.02   0.01  -0.01     0.05  -0.01   0.05     0.02   0.01   0.04
   5   6     0.08  -0.08   0.06     0.05   0.06   0.08     0.10  -0.00   0.07
   6   1     0.05  -0.06   0.01     0.02   0.01   0.02     0.05  -0.02   0.02
   7   1     0.04   0.01   0.06     0.01   0.02   0.03     0.04   0.01   0.05
   8   7     0.03  -0.10  -0.01     0.03   0.09   0.06     0.05  -0.04  -0.01
   9   6    -0.00  -0.18  -0.16     0.10   0.20   0.14     0.06  -0.04  -0.08
  10   1     0.02  -0.08  -0.05     0.02   0.09   0.04     0.04  -0.01  -0.03
  11   1    -0.01  -0.05  -0.06     0.02   0.06   0.04    -0.00  -0.02  -0.05
  12   1    -0.02  -0.04  -0.06     0.05   0.05   0.06     0.01  -0.01  -0.01
  13   6     0.13  -0.13   0.07    -0.11   0.15  -0.07     0.07  -0.04  -0.05
  14   1     0.06  -0.07   0.02    -0.05   0.08  -0.02     0.03  -0.00  -0.02
  15   1     0.05  -0.02   0.05    -0.05   0.01  -0.06     0.02  -0.01  -0.01
  16   1     0.03  -0.04   0.01    -0.02   0.04  -0.01     0.01  -0.02  -0.03
  17   6    -0.10   0.06   0.01     0.07  -0.11   0.07    -0.06  -0.05   0.02
  18   1    -0.03   0.03   0.04    -0.01  -0.08  -0.00    -0.03  -0.02   0.03
  19   1    -0.05   0.03  -0.02     0.07  -0.05   0.05    -0.01  -0.02   0.01
  20   1    -0.04   0.02  -0.01     0.01  -0.01   0.02    -0.04  -0.01  -0.01
  21   1    -0.03  -0.05  -0.03     0.05  -0.03  -0.05     0.01  -0.01  -0.02
  22   6     0.01   0.09   0.06    -0.03  -0.12  -0.11     0.19   0.09  -0.05
  23   8    -0.04   0.27   0.12     0.11  -0.32  -0.21     0.35   0.07  -0.10
  24   7     0.06  -0.04   0.09    -0.14   0.02  -0.04     0.13   0.09   0.10
  25   1     0.02   0.01   0.05    -0.02  -0.02  -0.03     0.07   0.01   0.03
  26   1     0.02  -0.05   0.02    -0.06   0.04  -0.01     0.01   0.02   0.03
  27   7     0.01   0.02   0.00    -0.10  -0.05  -0.13     0.08   0.10  -0.15
  28   1     0.01  -0.04  -0.02    -0.06   0.02  -0.01    -0.03   0.05  -0.01
  29   1    -0.00   0.02  -0.02    -0.02  -0.03  -0.04     0.01   0.05  -0.05
  30   6    -0.00   0.04  -0.05    -0.07  -0.06   0.10    -0.15  -0.03   0.10
  31   8     0.02   0.13  -0.17    -0.08  -0.17   0.15    -0.12   0.00  -0.07
  32   7    -0.09  -0.06  -0.02    -0.05   0.00   0.08    -0.30  -0.13   0.13
  33   1    -0.04   0.01  -0.02    -0.00  -0.03   0.03    -0.09  -0.03   0.03
  34   1    -0.03  -0.01   0.01    -0.01   0.00   0.01    -0.09  -0.02   0.05
  35   7     0.08   0.01   0.06    -0.13  -0.01   0.05    -0.06   0.01   0.25
  36   1     0.02  -0.02   0.04    -0.04   0.02  -0.00    -0.03  -0.01   0.10
  37   1     0.05   0.02   0.01    -0.05  -0.01   0.02     0.02   0.02   0.06
  38   6    -0.09  -0.13   0.01    -0.06  -0.09   0.01    -0.01   0.03   0.09
  39   8    -0.20  -0.20  -0.09    -0.13  -0.13  -0.05     0.01   0.09   0.18
  40   7    -0.09  -0.18   0.17    -0.06  -0.12   0.12    -0.00   0.05  -0.02
  41   1    -0.05  -0.07   0.04    -0.03  -0.05   0.03     0.02   0.03  -0.00
  42   1    -0.00  -0.03   0.07    -0.00  -0.02   0.05     0.00  -0.00  -0.02
  43   7     0.01  -0.05   0.03     0.00  -0.04   0.02    -0.07  -0.08   0.11
  44   1     0.01   0.00   0.03     0.00  -0.00   0.02    -0.03  -0.04   0.01
  45   1    -0.01  -0.01  -0.02    -0.01  -0.01  -0.01    -0.03  -0.03   0.05
  46   6     0.09   0.17  -0.03     0.07   0.13  -0.03    -0.09  -0.01  -0.13
  47   8     0.01   0.10  -0.16    -0.01   0.06  -0.14    -0.27   0.20  -0.09
  48   7     0.08   0.16   0.16     0.05   0.13   0.13     0.06  -0.09  -0.22
  49   1    -0.01   0.02   0.05    -0.00   0.01   0.04    -0.02   0.01  -0.07
  50   1     0.03   0.06   0.06     0.03   0.05   0.05     0.02  -0.04  -0.07
  51   7     0.26   0.28  -0.05     0.23   0.22  -0.05    -0.01  -0.21  -0.08
  52   1     0.07   0.10   0.00     0.06   0.08   0.00     0.00  -0.08  -0.03
  53   1     0.05   0.09  -0.04     0.04   0.08  -0.04    -0.05  -0.04  -0.00
                     22                     23                     24
                        a                      a                      a 
 Frequencies --   141.0989               152.2171               167.8962
 Red. masses --    13.0845                12.2897                12.0461
 Frc consts  --     0.0000                 0.0000                 0.0000
 IR Inten    --    12.5777                38.1673                11.2875
 Raman Activ --     0.0000                 0.0000                 0.0000
 Depolar     --     0.0000                 0.0000                 0.0000
 Atom AN      X      Y      Z        X      Y      Z        X      Y      Z
   1   8    -0.04   0.06   0.11    -0.02  -0.07  -0.02     0.11   0.12   0.31
   2   6     0.03   0.05  -0.01    -0.06  -0.11  -0.05     0.01  -0.02   0.15
   3   1     0.02  -0.00  -0.00     0.01  -0.03  -0.02     0.00  -0.05   0.06
   4   1    -0.00   0.03  -0.02    -0.03  -0.06  -0.04     0.00  -0.00   0.05
   5   6     0.05   0.04  -0.08    -0.18  -0.05   0.03    -0.13   0.05  -0.07
   6   1     0.02   0.02  -0.03    -0.08  -0.01   0.02    -0.08   0.09  -0.02
   7   1     0.02   0.01  -0.03    -0.07  -0.03  -0.01    -0.05  -0.02  -0.09
   8   7     0.05  -0.01  -0.10    -0.13   0.06   0.13    -0.04  -0.02   0.03
   9   6     0.00  -0.07  -0.11    -0.07   0.16   0.19    -0.10  -0.08   0.08
  10   1     0.01  -0.02  -0.03    -0.03   0.06   0.06    -0.07  -0.06   0.05
  11   1     0.00  -0.04  -0.04    -0.02   0.06   0.06     0.00   0.00   0.07
  12   1    -0.02  -0.01  -0.02     0.01   0.04   0.06    -0.03  -0.02  -0.03
  13   6     0.09  -0.02  -0.07    -0.19   0.08   0.12     0.04  -0.05   0.07
  14   1     0.03  -0.01  -0.02    -0.07   0.03   0.04     0.03  -0.04   0.02
  15   1     0.03   0.00  -0.02    -0.06   0.02   0.02     0.02   0.00   0.05
  16   1     0.03  -0.01  -0.02    -0.05   0.03   0.04     0.00  -0.01   0.01
  17   6     0.04   0.04  -0.10    -0.01   0.03   0.09     0.06   0.03  -0.01
  18   1     0.02   0.03  -0.03    -0.01  -0.01   0.01     0.07   0.07  -0.03
  19   1    -0.01   0.02  -0.03     0.02   0.00   0.02    -0.06   0.02   0.00
  20   1     0.02  -0.00  -0.03     0.00   0.02   0.04     0.06  -0.06   0.02
  21   1    -0.02   0.00   0.04    -0.03  -0.02   0.01     0.06   0.08   0.05
  22   6     0.04   0.04  -0.09     0.08   0.00  -0.04    -0.11  -0.07  -0.09
  23   8     0.26   0.16  -0.15     0.19  -0.06  -0.08     0.04   0.05  -0.13
  24   7    -0.02  -0.06   0.15     0.03   0.04   0.03    -0.19  -0.14   0.13
  25   1     0.04  -0.02   0.08     0.03  -0.01   0.00    -0.02  -0.03   0.07
  26   1    -0.05  -0.05   0.05    -0.01   0.02   0.01    -0.09  -0.07   0.04
  27   7    -0.12   0.02  -0.27     0.00   0.06  -0.06    -0.21  -0.13  -0.25
  28   1    -0.07   0.00  -0.06    -0.02   0.03  -0.00    -0.08  -0.04  -0.06
  29   1    -0.02  -0.00  -0.09     0.01   0.01  -0.02    -0.05  -0.03  -0.08
  30   6    -0.13  -0.01   0.11     0.10  -0.02  -0.14     0.01   0.02  -0.03
  31   8    -0.15   0.03   0.10     0.23  -0.05  -0.44     0.03   0.08  -0.10
  32   7    -0.12  -0.07   0.11    -0.20  -0.08  -0.08    -0.04  -0.02  -0.01
  33   1    -0.03   0.00   0.04    -0.08  -0.04  -0.05    -0.02   0.00  -0.01
  34   1    -0.03   0.00   0.02    -0.07  -0.02   0.03    -0.02  -0.00   0.01
  35   7    -0.14  -0.02   0.12     0.34   0.09   0.17     0.07   0.00   0.04
  36   1    -0.03  -0.02   0.03     0.05   0.05   0.12     0.01  -0.00   0.03
  37   1    -0.04  -0.00   0.03     0.17   0.05   0.03     0.04   0.02   0.01
  38   6     0.05   0.02  -0.12     0.02   0.01  -0.05    -0.03  -0.02   0.08
  39   8     0.05  -0.03  -0.20     0.01  -0.01  -0.08    -0.03  -0.00   0.12
  40   7     0.05   0.01  -0.05     0.02   0.00  -0.02    -0.04  -0.02   0.05
  41   1    -0.01  -0.01  -0.02    -0.01  -0.00  -0.01     0.01  -0.00   0.02
  42   1    -0.01   0.02  -0.01    -0.00   0.01  -0.00     0.01  -0.01   0.02
  43   7     0.09   0.13  -0.16     0.03   0.05  -0.06    -0.06  -0.09   0.11
  44   1     0.04   0.05  -0.01     0.02   0.02  -0.00    -0.04  -0.03   0.00
  45   1     0.04   0.04  -0.06     0.02   0.01  -0.02    -0.04  -0.03   0.04
  46   6     0.00  -0.09   0.19    -0.03  -0.05   0.06     0.16   0.07  -0.10
  47   8     0.16  -0.30   0.17    -0.03  -0.11   0.03     0.35   0.09  -0.03
  48   7    -0.15  -0.01   0.28    -0.08  -0.03   0.13     0.13   0.14  -0.27
  49   1    -0.01  -0.03   0.09    -0.01  -0.03   0.04     0.06   0.06  -0.08
  50   1    -0.04   0.01   0.08    -0.01  -0.00   0.05     0.01   0.03  -0.10
  51   7    -0.07   0.09   0.16    -0.00   0.02   0.05    -0.03   0.04  -0.11
  52   1    -0.03   0.05   0.05    -0.00   0.02   0.02    -0.00  -0.01  -0.04
  53   1     0.03   0.01   0.02    -0.00   0.01  -0.00     0.06  -0.03   0.01
                     25                     26                     27
                        a                      a                      a 
 Frequencies --   196.8818               229.0339               237.5714
 Red. masses --     9.4563                 3.7389                12.7103
 Frc consts  --     0.0000                 0.0000                 0.0000
 IR Inten    --     5.2291                14.6904                17.0419
 Raman Activ --     0.0000                 0.0000                 0.0000
 Depolar     --     0.0000                 0.0000                 0.0000
 Atom AN      X      Y      Z        X      Y      Z        X      Y      Z
   1   8     0.40   0.19  -0.31    -0.01  -0.00   0.00    -0.03  -0.04   0.55
   2   6    -0.04   0.06   0.19    -0.00   0.00  -0.01     0.12  -0.06   0.22
   3   1    -0.14   0.02   0.09     0.00   0.00  -0.00     0.05  -0.07   0.07
   4   1     0.07  -0.02   0.18    -0.00   0.00  -0.00     0.02   0.03   0.03
   5   6    -0.18   0.13  -0.08     0.00  -0.00   0.00     0.04   0.01  -0.03
   6   1    -0.10   0.12  -0.02     0.00  -0.00   0.00     0.00   0.06  -0.02
   7   1    -0.06   0.00  -0.11     0.00   0.00   0.00    -0.02  -0.03  -0.04
   8   7    -0.07  -0.07   0.02     0.00  -0.00  -0.00     0.02   0.07  -0.05
   9   6    -0.17  -0.18   0.10     0.00   0.00  -0.00    -0.01   0.05   0.01
  10   1    -0.16  -0.17   0.09     0.00   0.00  -0.00     0.01   0.05  -0.01
  11   1     0.02   0.03   0.13    -0.00  -0.00  -0.00    -0.01  -0.03  -0.01
  12   1    -0.03  -0.04  -0.13     0.00   0.00   0.00    -0.03   0.02   0.06
  13   6     0.13  -0.14   0.04    -0.00  -0.00   0.00    -0.01   0.09  -0.07
  14   1     0.10  -0.08  -0.00    -0.00   0.00   0.00    -0.00   0.03  -0.02
  15   1     0.05  -0.01   0.08    -0.00  -0.00  -0.00    -0.01   0.02  -0.02
  16   1     0.00  -0.04  -0.03     0.00  -0.00   0.00    -0.01   0.03  -0.02
  17   6     0.04  -0.06  -0.01    -0.00  -0.00   0.00     0.07   0.10  -0.07
  18   1     0.13   0.12  -0.07    -0.00  -0.00   0.00     0.08   0.10  -0.05
  19   1    -0.16   0.01   0.04     0.00  -0.00  -0.00    -0.07   0.05  -0.01
  20   1     0.09  -0.18   0.02    -0.00   0.00  -0.00     0.06  -0.05  -0.01
  21   1     0.08  -0.01  -0.05    -0.00   0.00  -0.00    -0.02   0.03   0.14
  22   6     0.03   0.03   0.02    -0.00  -0.00   0.00     0.04   0.02   0.02
  23   8    -0.02   0.01   0.03    -0.00   0.00  -0.00    -0.00  -0.04   0.03
  24   7     0.05   0.04  -0.04    -0.00  -0.00   0.00     0.05   0.05  -0.05
  25   1     0.00   0.01  -0.02    -0.00   0.00   0.00     0.01   0.00  -0.03
  26   1     0.03   0.02  -0.01    -0.00  -0.00   0.00     0.03   0.02  -0.02
  27   7     0.05   0.03   0.05    -0.00  -0.01  -0.00     0.03   0.06   0.07
  28   1     0.02   0.00   0.01    -0.00   0.00   0.00     0.02  -0.02   0.00
  29   1     0.01   0.01   0.02    -0.00  -0.00   0.00     0.03   0.00  -0.00
  30   6    -0.00   0.03  -0.01     0.00  -0.00   0.00    -0.00  -0.00   0.01
  31   8    -0.02   0.10  -0.02     0.00  -0.00   0.00    -0.01  -0.00   0.02
  32   7    -0.00   0.01  -0.01     0.00   0.00  -0.00     0.00   0.01   0.01
  33   1    -0.00   0.00  -0.00     0.00  -0.00   0.00     0.00  -0.01  -0.00
  34   1     0.00  -0.02   0.00     0.00  -0.00  -0.00     0.00  -0.02   0.00
  35   7     0.01  -0.02  -0.00    -0.00  -0.00  -0.00    -0.01  -0.00   0.00
  36   1     0.00  -0.01   0.00    -0.00   0.00  -0.00    -0.00   0.01  -0.00
  37   1     0.00   0.01  -0.00    -0.00   0.00  -0.00    -0.01   0.00   0.00
  38   6     0.00  -0.00  -0.02    -0.02  -0.01   0.02    -0.01  -0.02  -0.01
  39   8    -0.00  -0.00  -0.03    -0.01  -0.01   0.03    -0.02  -0.02  -0.02
  40   7     0.01  -0.00  -0.00     0.29  -0.03   0.14    -0.01  -0.03   0.03
  41   1    -0.01  -0.00  -0.01    -0.33   0.03  -0.18    -0.02  -0.01   0.00
  42   1    -0.01   0.00  -0.01    -0.47   0.03  -0.21    -0.01  -0.00   0.01
  43   7     0.01   0.02  -0.03    -0.28   0.04  -0.14     0.00   0.00  -0.01
  44   1     0.02   0.01   0.01     0.41  -0.10   0.27     0.01   0.00   0.01
  45   1     0.02   0.01  -0.01     0.30  -0.04   0.19     0.01   0.00  -0.00
  46   6    -0.07  -0.03   0.01     0.02   0.01  -0.02    -0.11  -0.10  -0.18
  47   8    -0.19  -0.06  -0.05     0.03   0.03  -0.01    -0.24  -0.17  -0.32
  48   7    -0.07  -0.07   0.14    -0.00   0.03  -0.03    -0.10  -0.17   0.10
  49   1    -0.01  -0.05   0.05     0.03  -0.01   0.00    -0.10  -0.06   0.04
  50   1     0.01  -0.01   0.05     0.02   0.00   0.00    -0.01  -0.00   0.07
  51   7     0.07   0.01   0.01     0.01  -0.02  -0.01     0.16   0.13  -0.28
  52   1     0.01   0.02   0.01    -0.01  -0.01  -0.02     0.06   0.08  -0.02
  53   1    -0.03   0.03  -0.03    -0.03   0.01   0.00     0.03   0.06  -0.16
                     28                     29                     30
                        a                      a                      a 
 Frequencies --   260.1704               277.3116               302.1288
 Red. masses --     5.9091                 2.4883                 6.6012
 Frc consts  --     0.0000                 0.0000                 0.0000
 IR Inten    --     4.3744               113.0892                 0.6358
 Raman Activ --     0.0000                 0.0000                 0.0000
 Depolar     --     0.0000                 0.0000                 0.0000
 Atom AN      X      Y      Z        X      Y      Z        X      Y      Z
   1   8    -0.26  -0.27  -0.06    -0.01  -0.02   0.01     0.00  -0.15  -0.03
   2   6    -0.10  -0.03   0.16    -0.01  -0.01   0.01     0.17  -0.09  -0.27
   3   1    -0.13   0.01   0.07    -0.00  -0.00   0.00     0.16  -0.01  -0.11
   4   1     0.02   0.06   0.12    -0.00  -0.00   0.01    -0.02  -0.07  -0.18
   5   6     0.12  -0.11   0.01    -0.01  -0.01   0.00     0.04  -0.00   0.09
   6   1     0.07  -0.04  -0.01    -0.00   0.00   0.00     0.01  -0.05   0.03
   7   1     0.03  -0.02   0.04    -0.00  -0.00  -0.00    -0.00  -0.00   0.07
   8   7     0.05   0.02  -0.08    -0.01   0.00   0.01    -0.02   0.09   0.08
   9   6     0.16   0.17  -0.09    -0.00   0.01   0.01    -0.16  -0.02   0.28
  10   1    -0.06  -0.06   0.03    -0.02  -0.01   0.01    -0.05   0.05   0.07
  11   1     0.10   0.19   0.08     0.01   0.03   0.02    -0.03  -0.10   0.08
  12   1     0.12   0.04  -0.19     0.01   0.00  -0.02    -0.09   0.00   0.15
  13   6    -0.19   0.10  -0.03     0.01  -0.00  -0.01     0.22   0.06  -0.31
  14   1     0.10  -0.01  -0.06    -0.02   0.01   0.00     0.09   0.08  -0.11
  15   1    -0.14  -0.02   0.17     0.01   0.00  -0.03     0.10   0.04  -0.13
  16   1    -0.18   0.14  -0.13     0.02  -0.02   0.01     0.06  -0.09  -0.12
  17   6     0.15   0.03  -0.10    -0.00   0.01   0.01    -0.22   0.06   0.14
  18   1     0.24   0.25  -0.12     0.00   0.01   0.00     0.10   0.24   0.01
  19   1    -0.26   0.06   0.04    -0.00   0.00  -0.00    -0.35   0.07   0.10
  20   1     0.17  -0.28   0.00     0.00   0.00   0.00     0.01  -0.25   0.01
  21   1     0.00  -0.09  -0.04     0.00  -0.00  -0.00    -0.04  -0.03   0.00
  22   6    -0.00  -0.01  -0.00     0.00  -0.02  -0.01    -0.01  -0.01  -0.00
  23   8     0.01  -0.01  -0.01     0.01  -0.04  -0.01     0.00  -0.01  -0.01
  24   7    -0.01  -0.00   0.01    -0.01   0.01  -0.01    -0.01  -0.00  -0.00
  25   1     0.00  -0.00   0.01     0.00  -0.01  -0.01    -0.00  -0.00  -0.00
  26   1    -0.00  -0.00   0.00    -0.00   0.01  -0.00    -0.00  -0.00  -0.00
  27   7     0.01  -0.01  -0.01     0.00   0.01   0.01    -0.00  -0.01  -0.01
  28   1    -0.01   0.02   0.01     0.00   0.00   0.00    -0.01   0.01   0.00
  29   1    -0.01   0.00   0.01     0.00  -0.00   0.00    -0.00  -0.00   0.00
  30   6     0.00  -0.00   0.00     0.03  -0.01   0.00    -0.01   0.02   0.01
  31   8     0.01  -0.01   0.01     0.03   0.01  -0.01    -0.02   0.05   0.01
  32   7     0.01  -0.01   0.00     0.00  -0.06  -0.00     0.00   0.01   0.01
  33   1     0.00   0.00   0.00    -0.02   0.10   0.00     0.00  -0.00   0.00
  34   1     0.00   0.01  -0.00    -0.05   0.33   0.00     0.00  -0.02   0.00
  35   7     0.01  -0.01   0.00    -0.13   0.29  -0.02    -0.02  -0.01  -0.00
  36   1    -0.00   0.00  -0.00     0.28  -0.73   0.07    -0.00  -0.00  -0.01
  37   1     0.00  -0.00   0.00     0.13  -0.36  -0.01    -0.01   0.01   0.00
  38   6     0.00   0.00   0.00     0.00   0.00  -0.00    -0.00   0.00   0.00
  39   8     0.01   0.00   0.00     0.00  -0.00  -0.00     0.00   0.00   0.00
  40   7     0.00   0.01  -0.01     0.00  -0.00   0.00    -0.00   0.00  -0.00
  41   1     0.00   0.00  -0.00    -0.00   0.00  -0.00     0.00   0.00   0.00
  42   1    -0.00   0.00  -0.00    -0.00   0.00  -0.00     0.00   0.00   0.00
  43   7    -0.00   0.00  -0.00    -0.00   0.00  -0.00    -0.00  -0.00   0.00
  44   1     0.00   0.00   0.00     0.00   0.00   0.00    -0.00  -0.00  -0.00
  45   1     0.00   0.00   0.00     0.00   0.00   0.00    -0.00  -0.00   0.00
  46   6     0.01   0.04   0.04    -0.00   0.00  -0.00     0.02   0.01   0.01
  47   8     0.03   0.07   0.08    -0.00  -0.00  -0.00     0.03   0.02   0.02
  48   7     0.04   0.04  -0.02     0.00  -0.00   0.00    -0.00   0.03  -0.03
  49   1    -0.00   0.03  -0.01    -0.00   0.00  -0.00     0.04  -0.01   0.00
  50   1    -0.00   0.00  -0.02    -0.00   0.00   0.00     0.01  -0.00  -0.01
  51   7    -0.05  -0.04   0.08     0.00   0.00  -0.00    -0.00  -0.02   0.03
  52   1    -0.02  -0.03   0.00     0.00   0.00   0.00    -0.02  -0.01  -0.01
  53   1    -0.01  -0.02   0.05     0.00   0.00  -0.00    -0.04   0.01   0.01
                     31                     32                     33
                        a                      a                      a 
 Frequencies --   304.1328               309.3478               340.9014
 Red. masses --     4.4390                 3.3521                 3.9549
 Frc consts  --     0.0000                 0.0000                 0.0000
 IR Inten    --     1.5036                 3.5389                 9.4466
 Raman Activ --     0.0000                 0.0000                 0.0000
 Depolar     --     0.0000                 0.0000                 0.0000
 Atom AN      X      Y      Z        X      Y      Z        X      Y      Z
   1   8    -0.01   0.21   0.15     0.03  -0.04  -0.06    -0.07  -0.20   0.04
   2   6     0.08   0.05  -0.26     0.02  -0.01  -0.00     0.11  -0.01   0.08
   3   1     0.16   0.00  -0.11    -0.00   0.00   0.00     0.04   0.03   0.01
   4   1    -0.06  -0.01  -0.20     0.01  -0.00   0.01     0.03   0.01   0.02
   5   6     0.01   0.05   0.02     0.00  -0.00   0.01     0.11   0.02   0.11
   6   1    -0.02  -0.01   0.02     0.00  -0.00   0.00     0.07  -0.01   0.02
   7   1     0.01   0.02  -0.00    -0.00  -0.00   0.01     0.01   0.00   0.09
   8   7     0.03  -0.01   0.06    -0.01   0.01   0.00    -0.03   0.08  -0.03
   9   6     0.09   0.05  -0.03    -0.04  -0.02   0.02    -0.22  -0.08   0.10
  10   1    -0.11  -0.16   0.07    -0.01  -0.00   0.01    -0.33  -0.31   0.18
  11   1     0.09   0.21   0.12    -0.00  -0.01   0.01     0.11   0.19   0.29
  12   1     0.11   0.01  -0.24    -0.02  -0.00   0.01    -0.02  -0.01  -0.35
  13   6     0.03  -0.01   0.03     0.01   0.00  -0.03     0.03   0.09  -0.21
  14   1     0.33  -0.11  -0.08    -0.05   0.02   0.01    -0.10   0.10  -0.03
  15   1    -0.09  -0.01   0.35     0.02   0.00  -0.07     0.04   0.02  -0.21
  16   1    -0.21   0.11  -0.22     0.04  -0.02   0.03     0.08  -0.04   0.01
  17   6    -0.17  -0.23   0.14     0.00   0.02  -0.01     0.08   0.11  -0.07
  18   1    -0.11  -0.14   0.07     0.01   0.02  -0.01    -0.10  -0.12   0.01
  19   1     0.02  -0.09   0.08    -0.02   0.01  -0.00     0.23  -0.00  -0.09
  20   1    -0.11  -0.03  -0.02     0.01  -0.01   0.00    -0.03   0.23   0.00
  21   1    -0.04   0.09   0.04     0.03  -0.02  -0.02     0.01  -0.07   0.00
  22   6     0.00  -0.00  -0.00     0.01   0.01  -0.00     0.00   0.01  -0.02
  23   8     0.00  -0.01  -0.00     0.01  -0.01   0.00     0.00   0.00  -0.01
  24   7    -0.01   0.01  -0.01     0.01  -0.00   0.00     0.03  -0.04   0.03
  25   1     0.01  -0.01  -0.01    -0.01   0.01  -0.00    -0.02   0.03   0.03
  26   1     0.01  -0.01  -0.01    -0.03   0.04   0.01    -0.07   0.06   0.03
  27   7    -0.01   0.00   0.00    -0.01   0.02   0.02     0.02   0.01   0.01
  28   1     0.00  -0.00  -0.00     0.05  -0.05  -0.03     0.03  -0.02  -0.01
  29   1     0.00  -0.00  -0.00    -0.00   0.00  -0.01     0.00  -0.00   0.01
  30   6    -0.00   0.00   0.01    -0.00   0.00  -0.00     0.01   0.01  -0.01
  31   8    -0.00  -0.00   0.01    -0.00   0.00  -0.00    -0.00   0.01  -0.01
  32   7     0.00  -0.00   0.01    -0.00   0.00  -0.00    -0.02   0.00  -0.01
  33   1     0.00  -0.00   0.00    -0.00  -0.00  -0.00    -0.01  -0.01  -0.00
  34   1     0.00   0.01  -0.00    -0.00  -0.01   0.00    -0.01  -0.01   0.00
  35   7    -0.01  -0.00   0.00     0.00  -0.00   0.00     0.01  -0.02  -0.01
  36   1     0.00  -0.02   0.00    -0.00   0.01   0.00    -0.01   0.04  -0.01
  37   1     0.00  -0.02   0.00    -0.00   0.00   0.00    -0.01   0.01  -0.00
  38   6    -0.00  -0.00  -0.00    -0.01  -0.01  -0.01     0.01  -0.00   0.00
  39   8    -0.00  -0.00  -0.00    -0.01  -0.01  -0.01     0.00   0.00   0.00
  40   7     0.00  -0.01   0.01     0.02  -0.01   0.01    -0.02   0.00  -0.01
  41   1    -0.00  -0.00  -0.00    -0.02   0.00  -0.01     0.02  -0.00   0.01
  42   1    -0.01   0.00  -0.00    -0.05   0.00  -0.02     0.03  -0.00   0.01
  43   7     0.00   0.00  -0.00     0.00   0.02  -0.01    -0.02   0.00  -0.01
  44   1     0.00   0.00   0.00     0.02   0.00   0.02     0.03  -0.01   0.02
  45   1     0.00   0.00  -0.00     0.00   0.01  -0.01     0.01  -0.00   0.01
  46   6    -0.02  -0.04  -0.03    -0.01   0.02   0.02    -0.01   0.01   0.00
  47   8    -0.02  -0.05  -0.05    -0.04   0.03  -0.00    -0.01   0.01   0.00
  48   7    -0.00  -0.06   0.03     0.23  -0.14   0.10    -0.00   0.01  -0.01
  49   1    -0.06   0.02  -0.00    -0.45   0.27  -0.08     0.01  -0.01   0.00
  50   1    -0.02   0.01   0.01    -0.15   0.09  -0.01     0.01  -0.00  -0.00
  51   7     0.00   0.05  -0.07    -0.25   0.12  -0.06     0.01  -0.02   0.02
  52   1     0.03   0.02   0.01     0.17  -0.09   0.07    -0.02   0.00  -0.01
  53   1     0.08  -0.01  -0.03     0.59  -0.28   0.12    -0.05   0.02  -0.00
                     34                     35                     36
                        a                      a                      a 
 Frequencies --   346.2822               354.4812               359.0318
 Red. masses --     3.7166                 4.5497                 3.3258
 Frc consts  --     0.0000                 0.0000                 0.0000
 IR Inten    --   388.4943                22.8032                49.2003
 Raman Activ --     0.0000                 0.0000                 0.0000
 Depolar     --     0.0000                 0.0000                 0.0000
 Atom AN      X      Y      Z        X      Y      Z        X      Y      Z
   1   8    -0.01  -0.01   0.00     0.05   0.27   0.07    -0.02  -0.14  -0.05
   2   6     0.01  -0.00   0.01    -0.03   0.06  -0.14     0.01  -0.03   0.07
   3   1     0.00   0.00   0.00     0.07   0.01  -0.06    -0.04  -0.00   0.03
   4   1     0.00   0.00   0.00    -0.05  -0.01  -0.11     0.03   0.00   0.06
   5   6     0.01   0.00   0.01     0.03  -0.02   0.09    -0.02   0.02  -0.05
   6   1     0.01  -0.00   0.00     0.03  -0.08   0.03    -0.02   0.04  -0.02
   7   1     0.00   0.00   0.01     0.05   0.05   0.06    -0.03  -0.03  -0.04
   8   7    -0.00   0.00  -0.00     0.02  -0.11   0.07    -0.00   0.06  -0.03
   9   6    -0.01  -0.01   0.00     0.16  -0.01  -0.16    -0.08  -0.00   0.08
  10   1    -0.02  -0.02   0.01     0.01  -0.10  -0.01     0.04   0.09  -0.02
  11   1     0.01   0.01   0.02     0.05   0.12  -0.00    -0.05  -0.11  -0.04
  12   1    -0.00  -0.00  -0.02     0.10  -0.01  -0.18    -0.07   0.00   0.15
  13   6     0.00   0.01  -0.01    -0.17  -0.06   0.08     0.09   0.04  -0.03
  14   1    -0.01   0.01  -0.00    -0.31   0.07   0.10     0.22  -0.05  -0.07
  15   1     0.00   0.00  -0.01    -0.00  -0.04  -0.24    -0.02   0.02   0.21
  16   1     0.00  -0.00   0.00     0.11  -0.06   0.21    -0.10   0.06  -0.15
  17   6     0.01   0.01  -0.01    -0.04  -0.08   0.09     0.03   0.03  -0.04
  18   1    -0.01  -0.01   0.00     0.10   0.12  -0.01    -0.05  -0.06   0.00
  19   1     0.02   0.00  -0.01    -0.19   0.01   0.06     0.10  -0.01  -0.02
  20   1    -0.00   0.02   0.00     0.05  -0.19   0.03    -0.02   0.09  -0.01
  21   1    -0.01  -0.00   0.00    -0.03   0.09   0.03     0.01  -0.05  -0.01
  22   6     0.00   0.00   0.00    -0.01   0.01  -0.02    -0.02   0.02  -0.00
  23   8    -0.00  -0.00   0.00    -0.01   0.01  -0.01    -0.01   0.03   0.00
  24   7    -0.01   0.01   0.00     0.13  -0.14   0.00     0.20  -0.20  -0.04
  25   1     0.01  -0.01  -0.00    -0.13   0.12   0.06    -0.19   0.17   0.05
  26   1     0.01  -0.01  -0.00    -0.27   0.32   0.08    -0.36   0.47   0.10
  27   7     0.00  -0.00   0.00    -0.02   0.04   0.02    -0.04   0.03  -0.02
  28   1    -0.00   0.00   0.00     0.09  -0.13  -0.08     0.08  -0.14  -0.09
  29   1    -0.00   0.00   0.00     0.02  -0.02  -0.02     0.01  -0.01  -0.03
  30   6     0.00   0.00  -0.00     0.01  -0.02  -0.01    -0.00  -0.06   0.00
  31   8     0.00   0.00  -0.00     0.00  -0.02  -0.01    -0.01  -0.04  -0.00
  32   7    -0.00  -0.00  -0.00    -0.02   0.03  -0.01     0.01   0.13   0.00
  33   1    -0.00   0.00   0.00    -0.01  -0.02  -0.01     0.01  -0.06  -0.02
  34   1    -0.00   0.01  -0.00     0.00  -0.09   0.01     0.04  -0.32   0.02
  35   7     0.00  -0.00  -0.00    -0.01   0.02  -0.01    -0.04   0.10   0.02
  36   1    -0.00   0.01  -0.00     0.00  -0.01   0.00     0.04  -0.12   0.04
  37   1    -0.00   0.00  -0.00     0.00   0.00  -0.00     0.03  -0.02   0.00
  38   6    -0.10   0.02  -0.05    -0.00   0.00  -0.00    -0.00   0.00  -0.00
  39   8    -0.04  -0.00  -0.03    -0.00   0.00  -0.00    -0.00   0.00  -0.00
  40   7     0.28   0.01   0.11     0.00  -0.00   0.00     0.01   0.00   0.00
  41   1    -0.24   0.01  -0.13    -0.00  -0.00  -0.00    -0.00   0.00  -0.00
  42   1    -0.49   0.05  -0.20    -0.00   0.00   0.00    -0.01   0.00  -0.00
  43   7     0.24  -0.07   0.18     0.00  -0.00   0.00     0.01  -0.00   0.01
  44   1    -0.48   0.12  -0.29    -0.01  -0.00  -0.00    -0.01   0.00  -0.01
  45   1    -0.23   0.03  -0.15    -0.00  -0.00  -0.00    -0.01   0.00  -0.00
  46   6     0.02  -0.01   0.00    -0.01  -0.03  -0.01     0.01   0.02   0.01
  47   8    -0.02   0.01  -0.01    -0.01  -0.02  -0.01    -0.00   0.02   0.01
  48   7    -0.04   0.02  -0.01    -0.03  -0.01  -0.00     0.00   0.02  -0.01
  49   1     0.08  -0.05   0.02     0.04  -0.03   0.01     0.03  -0.01   0.00
  50   1     0.06  -0.03   0.02     0.01  -0.01   0.01     0.01  -0.00  -0.00
  51   7    -0.02   0.01  -0.01     0.03   0.02  -0.03    -0.01  -0.02   0.03
  52   1     0.04  -0.02   0.01     0.00   0.02   0.00    -0.01  -0.01  -0.00
  53   1     0.03  -0.02   0.01    -0.02   0.02  -0.03    -0.02  -0.00   0.02
                     37                     38                     39
                        a                      a                      a 
 Frequencies --   375.1237               386.8624               431.0675
 Red. masses --     7.3999                 3.1042                 3.3809
 Frc consts  --     0.0000                 0.0000                 0.0000
 IR Inten    --    17.6102               253.4772               297.8986
 Raman Activ --     0.0000                 0.0000                 0.0000
 Depolar     --     0.0000                 0.0000                 0.0000
 Atom AN      X      Y      Z        X      Y      Z        X      Y      Z
   1   8    -0.10  -0.15   0.02     0.01  -0.02  -0.01    -0.01  -0.04  -0.01
   2   6    -0.11  -0.13   0.08     0.01   0.00   0.01     0.00  -0.01   0.00
   3   1    -0.12  -0.09   0.06     0.00   0.01   0.00    -0.01  -0.00   0.00
   4   1     0.02   0.02   0.09     0.00  -0.00   0.00     0.01   0.00   0.01
   5   6    -0.15  -0.03  -0.28     0.00   0.01   0.01    -0.01   0.01  -0.01
   6   1    -0.16   0.10  -0.06     0.00   0.00   0.00    -0.01   0.01  -0.00
   7   1    -0.06  -0.07  -0.23    -0.00  -0.00   0.01    -0.01  -0.01  -0.01
   8   7     0.09   0.03  -0.00    -0.01   0.02  -0.00     0.01   0.04   0.01
   9   6     0.30   0.30   0.04    -0.04  -0.02   0.02    -0.01   0.01  -0.03
  10   1    -0.00   0.06   0.05     0.03   0.03  -0.02     0.00  -0.01  -0.01
  11   1     0.10   0.22   0.07    -0.02  -0.06  -0.02    -0.01   0.00  -0.01
  12   1     0.20   0.06  -0.08    -0.04  -0.00   0.07    -0.01   0.01  -0.01
  13   6     0.35  -0.05   0.01    -0.01   0.01  -0.01     0.04   0.03   0.02
  14   1     0.01  -0.01   0.03     0.06  -0.02  -0.02     0.01   0.01   0.01
  15   1     0.19   0.05  -0.11    -0.02   0.00   0.07     0.02   0.01   0.00
  16   1     0.18  -0.11   0.08    -0.05   0.02  -0.06     0.01   0.00   0.01
  17   6    -0.24   0.03   0.10     0.03   0.01  -0.01     0.01  -0.04   0.02
  18   1    -0.11  -0.02   0.12    -0.00  -0.01  -0.01     0.00  -0.02  -0.01
  19   1    -0.06   0.00   0.06     0.03  -0.00  -0.01     0.00  -0.02   0.03
  20   1    -0.14   0.03  -0.06     0.01   0.02   0.00     0.00  -0.02  -0.00
  21   1     0.01  -0.02  -0.02    -0.00  -0.01  -0.00    -0.01  -0.01   0.00
  22   6    -0.01  -0.01   0.00     0.00  -0.03  -0.03     0.04  -0.06  -0.08
  23   8    -0.00  -0.01   0.00     0.00  -0.03  -0.03     0.08  -0.03  -0.08
  24   7     0.02  -0.02  -0.03     0.04  -0.06  -0.01    -0.18   0.14   0.05
  25   1    -0.03   0.02  -0.01    -0.04   0.02  -0.01     0.10  -0.08  -0.01
  26   1    -0.04   0.07   0.00    -0.19   0.24   0.05     0.10  -0.21  -0.03
  27   7    -0.01  -0.01  -0.00    -0.02   0.05   0.06    -0.10   0.20   0.19
  28   1     0.00  -0.01  -0.01     0.13  -0.18  -0.11     0.40  -0.64  -0.36
  29   1    -0.00  -0.00  -0.00     0.02  -0.01  -0.01     0.02   0.03  -0.03
  30   6    -0.01   0.01   0.02    -0.01   0.11   0.00    -0.01  -0.02  -0.00
  31   8    -0.00   0.00  -0.00    -0.01   0.08   0.03    -0.01  -0.02  -0.00
  32   7    -0.03  -0.02   0.03     0.00  -0.28  -0.01     0.01   0.04  -0.00
  33   1    -0.00  -0.00   0.01    -0.00   0.08   0.03    -0.01   0.02  -0.01
  34   1    -0.01   0.05   0.00    -0.09   0.75  -0.04     0.02  -0.15   0.00
  35   7    -0.04  -0.04  -0.02     0.09  -0.19   0.00    -0.01   0.04   0.02
  36   1    -0.03   0.05  -0.04    -0.07   0.22  -0.05     0.01  -0.03   0.02
  37   1    -0.05   0.00  -0.00    -0.04   0.06   0.00     0.02  -0.02   0.00
  38   6     0.00  -0.00  -0.00    -0.00   0.00  -0.00     0.00   0.00   0.00
  39   8     0.00  -0.00   0.00    -0.00   0.00  -0.00     0.00  -0.00  -0.00
  40   7     0.00  -0.00  -0.00     0.00   0.00  -0.00     0.01   0.00  -0.00
  41   1    -0.00   0.00  -0.00    -0.00   0.00  -0.00    -0.01   0.01  -0.01
  42   1    -0.00  -0.00  -0.00     0.00  -0.00   0.00     0.02  -0.00   0.00
  43   7     0.00   0.00  -0.00    -0.00  -0.00   0.00    -0.01  -0.00   0.00
  44   1    -0.00   0.00  -0.00    -0.00  -0.00  -0.00    -0.02   0.00  -0.01
  45   1     0.00   0.00  -0.00     0.00  -0.00   0.00     0.02  -0.00   0.01
  46   6    -0.00   0.00   0.00    -0.00   0.00   0.00    -0.02   0.02   0.03
  47   8    -0.00  -0.00   0.00    -0.01   0.01   0.00    -0.01   0.00   0.02
  48   7     0.00  -0.00   0.01    -0.01   0.01  -0.01     0.01   0.01  -0.04
  49   1    -0.01   0.00   0.00     0.03  -0.01   0.00     0.04   0.00  -0.01
  50   1    -0.00   0.00   0.00     0.01  -0.01   0.00     0.01  -0.01  -0.02
  51   7    -0.00  -0.01   0.01     0.00  -0.01   0.01     0.01  -0.02   0.04
  52   1    -0.00  -0.00  -0.00    -0.00  -0.00  -0.00    -0.03   0.01  -0.00
  53   1    -0.01   0.00   0.00    -0.01   0.00   0.00    -0.04   0.02  -0.00
                     40                     41                     42
                        a                      a                      a 
 Frequencies --   435.7692               444.1910               458.1298
 Red. masses --     8.5625                 1.5329                 8.5391
 Frc consts  --     0.0000                 0.0000                 0.0000
 IR Inten    --     4.4416                 5.7343                 8.8672
 Raman Activ --     0.0000                 0.0000                 0.0000
 Depolar     --     0.0000                 0.0000                 0.0000
 Atom AN      X      Y      Z        X      Y      Z        X      Y      Z
   1   8    -0.06  -0.22   0.02    -0.00  -0.00  -0.00     0.00  -0.00  -0.01
   2   6     0.13  -0.03  -0.01    -0.00  -0.00  -0.00    -0.01  -0.01   0.00
   3   1     0.05   0.00  -0.01    -0.00  -0.00  -0.00    -0.00   0.00  -0.00
   4   1     0.02  -0.01  -0.03     0.00  -0.00   0.00    -0.00  -0.01   0.00
   5   6    -0.07   0.12   0.02    -0.00  -0.00   0.00    -0.00  -0.01   0.02
   6   1    -0.05   0.07   0.01     0.00  -0.00   0.00     0.01  -0.02   0.00
   7   1    -0.06  -0.02  -0.02    -0.00  -0.00   0.00     0.00   0.00   0.02
   8   7    -0.09   0.32   0.04    -0.00   0.00  -0.00    -0.02   0.01  -0.01
   9   6    -0.22   0.06  -0.33    -0.00   0.00  -0.00    -0.01   0.03  -0.01
  10   1     0.03  -0.07  -0.11    -0.00   0.00  -0.00    -0.00   0.01  -0.00
  11   1    -0.09  -0.01  -0.14    -0.00   0.00  -0.00    -0.00   0.01  -0.00
  12   1    -0.14   0.04  -0.13    -0.00   0.00  -0.00     0.00   0.01  -0.00
  13   6     0.18   0.23   0.20     0.00   0.00   0.00     0.02  -0.01   0.00
  14   1    -0.02   0.01   0.09     0.00  -0.00   0.00     0.01  -0.01   0.00
  15   1     0.12   0.13   0.01     0.00   0.00   0.00     0.02   0.01   0.00
  16   1     0.12   0.01   0.12     0.00  -0.00   0.00     0.01  -0.01   0.00
  17   6     0.11  -0.37   0.08     0.00  -0.00  -0.00     0.01  -0.01  -0.02
  18   1     0.05  -0.15  -0.15     0.00  -0.00  -0.00     0.00  -0.01  -0.02
  19   1     0.04  -0.15   0.21     0.00  -0.00   0.00     0.01  -0.00  -0.00
  20   1     0.07  -0.23   0.02     0.00  -0.00   0.00     0.01  -0.00   0.00
  21   1     0.00  -0.06  -0.00     0.00  -0.00  -0.00    -0.01  -0.00   0.00
  22   6    -0.00   0.01   0.01     0.00  -0.00  -0.00    -0.00  -0.00   0.02
  23   8    -0.02   0.01   0.01     0.00  -0.00  -0.00     0.01   0.01   0.02
  24   7     0.02  -0.01  -0.00    -0.00   0.00   0.00     0.00   0.01  -0.01
  25   1    -0.02   0.03   0.02    -0.00   0.00   0.00     0.02  -0.04  -0.04
  26   1    -0.01   0.00   0.00     0.00  -0.01  -0.00     0.01   0.04  -0.00
  27   7     0.01  -0.01  -0.02    -0.00   0.01   0.01    -0.01  -0.02  -0.01
  28   1    -0.04   0.07   0.04     0.01  -0.02  -0.01    -0.01  -0.00   0.00
  29   1     0.00  -0.00   0.00     0.00  -0.00  -0.00    -0.01   0.00  -0.00
  30   6     0.01   0.00   0.01    -0.00  -0.00   0.00     0.00   0.00   0.00
  31   8     0.01   0.01  -0.00    -0.00  -0.00  -0.00     0.01   0.00  -0.00
  32   7    -0.01  -0.00   0.01     0.00   0.00   0.00    -0.00  -0.00   0.01
  33   1    -0.00  -0.01   0.00     0.00   0.00   0.00    -0.00   0.00   0.00
  34   1    -0.01   0.03   0.00     0.00  -0.00  -0.00    -0.00  -0.01   0.00
  35   7    -0.01  -0.01  -0.01    -0.00   0.00   0.00    -0.01   0.00  -0.00
  36   1     0.00  -0.00  -0.01    -0.00   0.00   0.00    -0.00   0.00  -0.01
  37   1    -0.01   0.01  -0.00    -0.00  -0.00   0.00    -0.01  -0.01  -0.00
  38   6    -0.00  -0.00   0.00     0.02   0.03  -0.03     0.14   0.20  -0.21
  39   8    -0.00  -0.00   0.00     0.02   0.03  -0.04     0.15   0.21  -0.23
  40   7     0.00  -0.00  -0.01    -0.11   0.04  -0.02    -0.12   0.12   0.37
  41   1     0.00   0.00  -0.00     0.41  -0.15   0.29    -0.22  -0.18   0.10
  42   1     0.00  -0.00  -0.00    -0.46   0.13  -0.10     0.02   0.20   0.28
  43   7     0.00   0.01   0.00     0.12  -0.06   0.04    -0.08  -0.39  -0.10
  44   1    -0.01   0.01  -0.00     0.36  -0.18   0.15    -0.03  -0.27  -0.20
  45   1     0.01   0.00  -0.00    -0.48   0.02  -0.15    -0.05  -0.16   0.24
  46   6     0.01   0.02  -0.00    -0.01  -0.00   0.01    -0.02  -0.04   0.05
  47   8     0.01   0.00  -0.01    -0.00  -0.01   0.01    -0.04  -0.02   0.05
  48   7     0.01   0.01   0.01     0.01  -0.01  -0.02    -0.02  -0.02  -0.05
  49   1    -0.02   0.01   0.00    -0.01   0.02  -0.01     0.04   0.01  -0.02
  50   1    -0.00   0.01   0.00    -0.02  -0.00  -0.02     0.02  -0.04  -0.03
  51   7    -0.01  -0.02   0.01     0.02   0.01   0.01     0.01   0.05   0.01
  52   1    -0.01  -0.01  -0.01     0.00   0.01   0.01     0.01   0.04   0.03
  53   1    -0.02  -0.00   0.02    -0.03   0.02  -0.02     0.08  -0.01  -0.02
                     43                     44                     45
                        a                      a                      a 
 Frequencies --   461.0513               466.4882               466.6529
 Red. masses --     2.5621                 3.8370                 7.0859
 Frc consts  --     0.0000                 0.0000                 0.0000
 IR Inten    --   148.6838               226.6912                43.7208
 Raman Activ --     0.0000                 0.0000                 0.0000
 Depolar     --     0.0000                 0.0000                 0.0000
 Atom AN      X      Y      Z        X      Y      Z        X      Y      Z
   1   8     0.01   0.01   0.01     0.03   0.05   0.02     0.05   0.09   0.03
   2   6    -0.01  -0.01   0.00    -0.10  -0.06   0.02    -0.04   0.00  -0.00
   3   1     0.00   0.00  -0.00    -0.01  -0.01  -0.00     0.03   0.02  -0.02
   4   1    -0.01  -0.01  -0.00    -0.03  -0.05  -0.00    -0.03  -0.03  -0.03
   5   6     0.01  -0.02   0.04    -0.08  -0.06   0.13     0.05  -0.08   0.19
   6   1     0.03  -0.03   0.01     0.01  -0.07   0.03     0.17  -0.16   0.02
   7   1     0.01   0.01   0.05    -0.01   0.01   0.09     0.03   0.05   0.25
   8   7    -0.05   0.01  -0.03    -0.10  -0.00   0.04    -0.26  -0.02  -0.19
   9   6    -0.03   0.05  -0.01    -0.00   0.10  -0.06    -0.10   0.32   0.10
  10   1    -0.02   0.01   0.00     0.02   0.03  -0.03    -0.08   0.17   0.03
  11   1    -0.00   0.03   0.01    -0.02   0.06  -0.04    -0.01   0.12   0.06
  12   1     0.01   0.01  -0.01     0.03   0.02  -0.01     0.08   0.06   0.07
  13   6     0.04  -0.03   0.02     0.10  -0.05  -0.08     0.18  -0.23   0.13
  14   1     0.00  -0.02   0.01     0.08  -0.01  -0.04     0.06  -0.18   0.05
  15   1     0.03   0.02  -0.00     0.05   0.02   0.00     0.14   0.06   0.08
  16   1     0.03  -0.02   0.02     0.01  -0.06  -0.06     0.09  -0.11   0.07
  17   6     0.02  -0.02  -0.05     0.11   0.03  -0.02     0.01  -0.07  -0.30
  18   1     0.01  -0.01  -0.03     0.04  -0.00  -0.05     0.03  -0.01  -0.15
  19   1     0.01  -0.01  -0.01     0.06   0.01  -0.03     0.02  -0.02  -0.09
  20   1     0.02  -0.01  -0.00     0.06   0.03   0.04     0.06  -0.03  -0.02
  21   1    -0.03   0.00   0.01    -0.06   0.02   0.03     0.02   0.03   0.00
  22   6    -0.05   0.01   0.09     0.03  -0.00  -0.02     0.01  -0.03   0.03
  23   8     0.07   0.11   0.08    -0.02  -0.07  -0.00     0.04   0.01   0.03
  24   7    -0.08   0.08  -0.01     0.06  -0.01  -0.02     0.02   0.02  -0.05
  25   1     0.34  -0.52  -0.40    -0.18   0.26   0.17    -0.06   0.05  -0.02
  26   1    -0.03   0.38   0.00     0.05  -0.18  -0.02     0.03   0.01  -0.02
  27   7    -0.02  -0.17  -0.04    -0.03   0.06  -0.00    -0.07  -0.00  -0.02
  28   1    -0.02  -0.05  -0.01    -0.01  -0.01  -0.01    -0.02  -0.04  -0.02
  29   1    -0.06   0.04  -0.01    -0.00   0.02  -0.02     0.00  -0.02  -0.03
  30   6     0.00   0.01   0.01     0.06   0.03   0.06     0.02   0.02   0.03
  31   8     0.02   0.00  -0.02     0.11   0.03  -0.03     0.05   0.02  -0.03
  32   7    -0.00   0.00   0.02    -0.09  -0.02   0.09    -0.04  -0.01   0.05
  33   1    -0.02   0.03  -0.00    -0.05  -0.01  -0.01    -0.02  -0.00   0.00
  34   1     0.01  -0.07   0.00    -0.04  -0.01   0.07    -0.01  -0.02   0.03
  35   7    -0.02   0.02  -0.00    -0.05  -0.01  -0.09    -0.04  -0.01  -0.04
  36   1    -0.01   0.03  -0.03     0.00   0.04  -0.12    -0.01   0.04  -0.07
  37   1    -0.00  -0.10   0.00    -0.09  -0.11  -0.01    -0.05  -0.09  -0.00
  38   6    -0.03  -0.01   0.02    -0.03   0.01   0.01     0.00  -0.02   0.01
  39   8    -0.02  -0.03   0.02    -0.01  -0.02  -0.01    -0.01  -0.01   0.02
  40   7     0.00  -0.00  -0.05    -0.01   0.01  -0.03     0.02  -0.02  -0.01
  41   1     0.01   0.03  -0.03    -0.04   0.04  -0.05     0.03  -0.00   0.01
  42   1     0.05  -0.03  -0.02     0.11  -0.03   0.01    -0.05  -0.00  -0.03
  43   7     0.00   0.05   0.01    -0.01   0.03   0.01     0.01   0.02   0.00
  44   1     0.07   0.00   0.05     0.12  -0.04   0.07    -0.06   0.04  -0.02
  45   1    -0.05   0.02  -0.04    -0.11   0.02  -0.04     0.06   0.00   0.00
  46   6     0.05  -0.02  -0.00     0.07  -0.05  -0.01    -0.05   0.01   0.01
  47   8    -0.03   0.04  -0.02    -0.08   0.09  -0.01     0.03  -0.04   0.02
  48   7    -0.07   0.04   0.01    -0.13   0.05   0.01     0.06  -0.04  -0.02
  49   1     0.21  -0.14   0.06     0.38  -0.27   0.10    -0.18   0.13  -0.06
  50   1     0.09  -0.04   0.03     0.17  -0.08   0.06    -0.09   0.04  -0.04
  51   7    -0.05   0.01  -0.03    -0.09   0.02  -0.07     0.06   0.01   0.02
  52   1     0.06  -0.03   0.01     0.11  -0.05   0.03    -0.04   0.04  -0.01
  53   1     0.18  -0.09   0.04     0.36  -0.17   0.06    -0.16   0.09  -0.05
                     46                     47                     48
                        a                      a                      a 
 Frequencies --   470.1238               477.2582               482.5549
 Red. masses --     5.4719                 5.2024                 7.9849
 Frc consts  --     0.0000                 0.0000                 0.0000
 IR Inten    --    55.9664                20.6157                10.9951
 Raman Activ --     0.0000                 0.0000                 0.0000
 Depolar     --     0.0000                 0.0000                 0.0000
 Atom AN      X      Y      Z        X      Y      Z        X      Y      Z
   1   8    -0.01  -0.02   0.01     0.03   0.06   0.01     0.00   0.00   0.00
   2   6     0.08   0.06  -0.01    -0.16  -0.10   0.01    -0.03  -0.02   0.00
   3   1     0.00   0.01   0.01    -0.00  -0.02  -0.01     0.01  -0.00  -0.00
   4   1     0.03   0.04   0.01    -0.06  -0.08  -0.02    -0.01  -0.02  -0.01
   5   6     0.15   0.01  -0.06    -0.20  -0.06   0.17    -0.06   0.00   0.03
   6   1     0.09  -0.02  -0.03    -0.06  -0.04   0.05    -0.04   0.01   0.01
   7   1     0.04   0.02   0.04    -0.04  -0.00   0.05    -0.02  -0.01  -0.02
   8   7     0.00   0.02  -0.18    -0.10  -0.02   0.19    -0.00  -0.01   0.08
   9   6    -0.05   0.07   0.13     0.06   0.05  -0.17     0.02  -0.04  -0.07
  10   1    -0.09   0.05   0.06     0.09  -0.02  -0.07     0.03  -0.05  -0.02
  11   1     0.04   0.01   0.09    -0.04   0.07  -0.10    -0.01   0.02  -0.03
  12   1     0.00   0.02   0.04     0.05   0.01  -0.08     0.00  -0.01  -0.06
  13   6     0.01  -0.04   0.17     0.10  -0.03  -0.23    -0.01   0.02  -0.09
  14   1    -0.06  -0.08   0.08     0.11   0.06  -0.10     0.00   0.05  -0.03
  15   1     0.03   0.02   0.05     0.04   0.01  -0.07    -0.01  -0.01  -0.06
  16   1     0.05   0.02   0.11    -0.01  -0.09  -0.14    -0.01  -0.02  -0.04
  17   6    -0.13  -0.08  -0.14     0.20   0.09   0.10     0.06   0.03   0.06
  18   1    -0.04  -0.02  -0.03     0.06   0.02  -0.02     0.02   0.01   0.01
  19   1    -0.06  -0.03   0.00     0.10   0.03  -0.04     0.03   0.01  -0.00
  20   1    -0.05  -0.05  -0.07     0.10   0.07   0.10     0.02   0.02   0.03
  21   1    -0.03  -0.01   0.01     0.01   0.03  -0.01     0.01   0.00  -0.00
  22   6    -0.00  -0.01   0.03    -0.01  -0.01   0.05     0.03  -0.10   0.22
  23   8     0.03  -0.00   0.03     0.04   0.03   0.05     0.20   0.02   0.22
  24   7     0.02   0.02  -0.05     0.00   0.04  -0.04     0.14   0.15  -0.25
  25   1    -0.08   0.09   0.01     0.02  -0.06  -0.09    -0.24   0.17  -0.14
  26   1     0.05  -0.04  -0.02     0.04   0.06  -0.02     0.24   0.07  -0.11
  27   7    -0.05  -0.01  -0.00    -0.05  -0.04  -0.01    -0.32  -0.11  -0.07
  28   1    -0.02  -0.02  -0.01    -0.02  -0.04  -0.01    -0.17  -0.15  -0.02
  29   1    -0.01   0.01  -0.02    -0.01   0.00  -0.02    -0.06   0.00  -0.14
  30   6    -0.12  -0.08  -0.10     0.02  -0.05   0.02    -0.12   0.01  -0.05
  31   8    -0.20  -0.08   0.06     0.01  -0.05   0.03    -0.15  -0.00  -0.04
  32   7     0.15   0.08  -0.18    -0.04   0.10   0.00     0.18  -0.03  -0.10
  33   1     0.12  -0.04   0.02     0.02  -0.09   0.01     0.10   0.06   0.04
  34   1     0.06   0.10  -0.14    -0.01   0.07   0.00     0.08   0.01  -0.12
  35   7     0.09  -0.03   0.16    -0.01  -0.09  -0.05     0.02   0.06   0.18
  36   1     0.02  -0.21   0.28     0.07  -0.27   0.09    -0.07   0.16   0.08
[...]
  44   1    -0.00  -0.00   0.00    -0.00  -0.00   0.00     0.01   0.01  -0.01
  45   1     0.00   0.00  -0.00    -0.00   0.01   0.00    -0.00  -0.02  -0.00
  46   6     0.00   0.00   0.00     0.00   0.01   0.00    -0.00  -0.00   0.01
  47   8    -0.00  -0.00  -0.00    -0.00  -0.00   0.00     0.00   0.00  -0.01
  48   7     0.00   0.00  -0.00     0.10   0.13  -0.12    -0.04  -0.05   0.03
  49   1     0.00  -0.00  -0.00    -0.00  -0.09  -0.23     0.00   0.04   0.10
  50   1    -0.00  -0.00   0.01    -0.38  -0.42   0.67     0.13   0.15  -0.24
  51   7     0.00   0.00  -0.00    -0.04  -0.03   0.06    -0.09  -0.06   0.17
  52   1    -0.00  -0.00   0.00     0.17   0.17  -0.22     0.45   0.46  -0.59
  53   1     0.00  -0.00  -0.00    -0.03  -0.08  -0.02    -0.11  -0.25  -0.06
                    142                    143                    144
                        a                      a                      a 
 Frequencies --  3492.8307              3496.6346              3497.3400
 Red. masses --     1.4565                 1.4506                 1.4395
 Frc consts  --     0.0000                 0.0000                 0.0000
 IR Inten    --    14.1283                18.7909                41.1529
 Raman Activ --     0.0000                 0.0000                 0.0000
 Depolar     --     0.0000                 0.0000                 0.0000
 Atom AN      X      Y      Z        X      Y      Z        X      Y      Z
   1   8    -0.00  -0.00  -0.00     0.00   0.00  -0.00    -0.00  -0.00  -0.00
   2   6     0.00   0.00   0.00    -0.00  -0.00  -0.00    -0.00   0.00  -0.00
   3   1    -0.00  -0.00  -0.00     0.00   0.00   0.00     0.00  -0.00  -0.00
   4   1    -0.00  -0.00  -0.00     0.00   0.00  -0.00     0.00  -0.00  -0.00
   5   6     0.00  -0.00  -0.00    -0.00   0.00   0.00    -0.00   0.00  -0.00
   6   1     0.00   0.00   0.00     0.00   0.00   0.00    -0.00   0.00   0.00
   7   1    -0.00   0.00  -0.00     0.00  -0.00  -0.00     0.00  -0.00   0.00
   8   7     0.00   0.00  -0.00     0.00   0.00  -0.00    -0.00  -0.00  -0.00
   9   6    -0.00  -0.00  -0.00     0.00   0.00  -0.00    -0.00  -0.00  -0.00
  10   1     0.00   0.00   0.00     0.00   0.00   0.00     0.00   0.00   0.00
  11   1    -0.00  -0.00   0.00    -0.00  -0.00   0.00     0.00   0.00  -0.00
  12   1     0.00   0.00  -0.00     0.00   0.00  -0.00     0.00   0.00  -0.00
  13   6    -0.00  -0.00  -0.00     0.00   0.00  -0.00    -0.00   0.00  -0.00
  14   1     0.00   0.00   0.00     0.00   0.00   0.00     0.00   0.00   0.00
  15   1    -0.00   0.00  -0.00     0.00  -0.00  -0.00     0.00  -0.00   0.00
  16   1    -0.00  -0.00   0.00    -0.00  -0.00   0.00    -0.00   0.00   0.00
  17   6     0.00   0.00  -0.00     0.00   0.00  -0.00    -0.00   0.00   0.00
  18   1    -0.00  -0.00  -0.00     0.00  -0.00   0.00     0.00   0.00   0.00
  19   1     0.00   0.00  -0.00     0.00   0.00  -0.00    -0.00   0.00  -0.00
  20   1    -0.00  -0.00   0.00    -0.00  -0.00   0.00    -0.00   0.00   0.00
  21   1     0.00   0.00   0.00     0.00   0.00   0.00     0.00   0.00   0.00
  22   6     0.00   0.00   0.00    -0.00  -0.00   0.00     0.00   0.00   0.00
  23   8    -0.00   0.00  -0.00     0.00   0.00  -0.00    -0.00  -0.00  -0.00
  24   7     0.12   0.11   0.09     0.00   0.00   0.00    -0.00  -0.00  -0.00
  25   1    -0.31  -0.45   0.37    -0.00  -0.00   0.00     0.00   0.00  -0.00
  26   1    -0.14   0.04  -0.71    -0.00   0.00  -0.01     0.00  -0.00   0.00
  27   7    -0.01   0.00  -0.01    -0.00   0.00  -0.00    -0.00  -0.00   0.00
  28   1     0.02  -0.01   0.03     0.00  -0.00   0.00    -0.00   0.00  -0.00
  29   1     0.01   0.00   0.00    -0.00  -0.00  -0.00     0.00   0.00   0.00
  30   6    -0.00  -0.00  -0.00    -0.00  -0.00   0.00     0.00   0.00   0.00
  31   8     0.00   0.00   0.00     0.00   0.00   0.00    -0.00  -0.00  -0.00
  32   7     0.00   0.00  -0.00     0.01   0.00  -0.00    -0.00  -0.00  -0.00
  33   1    -0.01  -0.00   0.01    -0.01  -0.00   0.01    -0.00   0.00   0.00
  34   1     0.01   0.00   0.00    -0.03  -0.00  -0.01     0.00   0.00   0.00
  35   7     0.00   0.00  -0.00    -0.14  -0.06   0.11     0.00   0.00  -0.00
  36   1    -0.01  -0.00  -0.00     0.62   0.26   0.25    -0.00  -0.00  -0.00
  37   1     0.00   0.00   0.00    -0.11  -0.03  -0.65     0.00   0.00   0.00
  38   6     0.00   0.00  -0.00     0.00  -0.00   0.00     0.00  -0.00  -0.00
  39   8    -0.00  -0.00   0.00     0.00   0.00  -0.00    -0.00  -0.00  -0.00
  40   7     0.00  -0.00  -0.00     0.00  -0.00  -0.00     0.00  -0.13  -0.01
  41   1    -0.00   0.00   0.00    -0.00   0.00   0.00    -0.19   0.17   0.39
  42   1     0.00   0.00  -0.00     0.00   0.00  -0.00     0.18   0.32  -0.36
  43   7    -0.00   0.00   0.00     0.00  -0.00  -0.00     0.07  -0.03  -0.10
  44   1     0.00   0.00  -0.00    -0.00  -0.00   0.00    -0.27  -0.32   0.31
  45   1    -0.00  -0.00  -0.00     0.00   0.00   0.00     0.01   0.46   0.08
  46   6     0.00   0.00  -0.00    -0.00  -0.00   0.00     0.00   0.00   0.00
  47   8    -0.00  -0.00   0.00     0.00   0.00  -0.00    -0.00  -0.00  -0.00
  48   7    -0.00  -0.00  -0.00     0.00   0.00   0.00     0.00   0.00   0.00
  49   1     0.00   0.00   0.00    -0.00  -0.00  -0.00    -0.00  -0.00  -0.00
  50   1     0.00   0.00  -0.00    -0.00  -0.00   0.00    -0.00  -0.00   0.00
  51   7     0.00   0.00   0.00     0.00  -0.00  -0.00    -0.00  -0.00  -0.00
  52   1     0.00   0.00  -0.00    -0.00  -0.00   0.00     0.00   0.00  -0.00
  53   1    -0.00  -0.00  -0.00     0.00   0.00   0.00    -0.00  -0.00   0.00
                    145                    146                    147
                        a                      a                      a 
 Frequencies --  3501.4318              3521.6738              3522.4831
 Red. masses --     1.4647                 2.0237                 1.9075
 Frc consts  --     0.0000                 0.0000                 0.0000
 IR Inten    --     5.2605                94.4954                 7.9186
 Raman Activ --     0.0000                 0.0000                 0.0000
 Depolar     --     0.0000                 0.0000                 0.0000
 Atom AN      X      Y      Z        X      Y      Z        X      Y      Z
   1   8     0.00   0.00   0.00    -0.00  -0.00  -0.00     0.00   0.00   0.00
   2   6     0.00  -0.00  -0.00    -0.00   0.00  -0.00     0.00  -0.00  -0.00
   3   1     0.00   0.00   0.00    -0.00  -0.00  -0.00     0.00  -0.00   0.00
   4   1    -0.00  -0.00   0.00     0.00  -0.00  -0.00    -0.00   0.00   0.00
   5   6    -0.00   0.00  -0.00    -0.00  -0.00  -0.00     0.00   0.00   0.00
   6   1     0.00   0.00  -0.00     0.00  -0.00   0.00     0.00   0.00  -0.00
   7   1    -0.00   0.00  -0.00     0.00  -0.00   0.00    -0.00   0.00  -0.00
   8   7    -0.00  -0.00   0.00    -0.00  -0.00  -0.00     0.00   0.00   0.00
   9   6     0.00   0.00  -0.00    -0.00  -0.00  -0.00     0.00  -0.00  -0.00
  10   1     0.00   0.00   0.00     0.00   0.00   0.00     0.00   0.00   0.00
  11   1    -0.00  -0.00   0.00     0.00   0.00  -0.00    -0.00  -0.00   0.00
  12   1    -0.00  -0.00  -0.00     0.00   0.00  -0.00    -0.00  -0.00  -0.00
  13   6     0.00   0.00  -0.00    -0.00   0.00  -0.00     0.00   0.00  -0.00
  14   1     0.00   0.00  -0.00     0.00  -0.00   0.00     0.00  -0.00   0.00
  15   1     0.00   0.00  -0.00     0.00  -0.00  -0.00    -0.00  -0.00  -0.00
  16   1    -0.00   0.00   0.00     0.00   0.00  -0.00    -0.00  -0.00   0.00
  17   6     0.00   0.00  -0.00    -0.00   0.00   0.00     0.00   0.00   0.00
  18   1     0.00  -0.00  -0.00     0.00   0.00  -0.00    -0.00   0.00  -0.00
  19   1    -0.00   0.00  -0.00     0.00   0.00  -0.00    -0.00  -0.00   0.00
  20   1    -0.00  -0.00   0.00    -0.00  -0.00  -0.00     0.00   0.00   0.00
  21   1    -0.00  -0.00  -0.00     0.01   0.01   0.01    -0.00  -0.00  -0.01
  22   6     0.00  -0.00   0.00    -0.00  -0.00  -0.00    -0.01  -0.00  -0.01
  23   8    -0.00   0.00  -0.00     0.00  -0.00   0.00     0.00  -0.00   0.00
  24   7    -0.00  -0.00  -0.00    -0.00  -0.00   0.00    -0.01  -0.02   0.02
  25   1     0.00   0.00  -0.00     0.01   0.01  -0.01     0.04   0.06  -0.04
  26   1     0.00  -0.00   0.00    -0.00  -0.00  -0.00    -0.00  -0.00  -0.02
  27   7     0.00  -0.00   0.00    -0.02   0.01  -0.05    -0.11   0.06  -0.22
  28   1    -0.00   0.00  -0.00     0.09  -0.06   0.20     0.36  -0.26   0.82
  29   1     0.00   0.00   0.00     0.01   0.01   0.00     0.07   0.06   0.02
  30   6    -0.00  -0.00   0.00     0.00   0.00   0.00    -0.00   0.00   0.00
  31   8     0.00   0.00   0.00    -0.00  -0.00  -0.00     0.00   0.00  -0.00
  32   7     0.00   0.00  -0.00    -0.00  -0.00  -0.00    -0.00  -0.00  -0.00
  33   1    -0.00  -0.00   0.00    -0.00  -0.00   0.00    -0.00  -0.00   0.00
  34   1    -0.00  -0.00  -0.00     0.00   0.00   0.00     0.01   0.00   0.00
  35   7    -0.00  -0.00   0.00    -0.00  -0.00   0.00     0.00   0.00  -0.00
  36   1     0.00   0.00   0.00     0.00   0.00   0.00    -0.00  -0.00  -0.00
  37   1    -0.00  -0.00  -0.00    -0.00  -0.00  -0.00     0.00   0.00   0.00
  38   6    -0.00  -0.00   0.00     0.00   0.00  -0.00    -0.00  -0.00   0.00
  39   8     0.00   0.00  -0.00    -0.00  -0.00   0.00     0.00   0.00  -0.00
  40   7     0.00  -0.13  -0.01    -0.00  -0.01   0.00     0.00   0.00  -0.00
  41   1    -0.20   0.17   0.40    -0.00   0.00   0.01     0.00  -0.00  -0.00
  42   1     0.18   0.31  -0.35     0.01   0.01  -0.02    -0.00  -0.00   0.00
  43   7    -0.07   0.04   0.11    -0.00  -0.00   0.00     0.00   0.00  -0.00
  44   1     0.26   0.31  -0.30     0.01   0.01  -0.01    -0.00  -0.00   0.00
  45   1    -0.01  -0.46  -0.09    -0.00  -0.01  -0.00     0.00   0.00   0.00
  46   6    -0.00  -0.00   0.00     0.00  -0.00  -0.01    -0.00  -0.00   0.00
  47   8    -0.00  -0.00   0.00     0.00   0.00  -0.00     0.00   0.00  -0.00
  48   7     0.00   0.01   0.01     0.02  -0.06  -0.26    -0.00   0.02   0.06
  49   1    -0.00  -0.01  -0.03     0.03   0.35   0.83    -0.01  -0.08  -0.20
  50   1    -0.01  -0.01   0.01    -0.11  -0.12   0.17     0.02   0.03  -0.04
  51   7     0.00  -0.00  -0.00    -0.01  -0.02  -0.00     0.00   0.00  -0.00
  52   1    -0.01  -0.01   0.01    -0.00  -0.00  -0.00    -0.00  -0.00   0.00
  53   1     0.01   0.01   0.00     0.03   0.07   0.02    -0.01  -0.02  -0.00
                    148                    149                    150
                        a                      a                      a 
 Frequencies --  3532.3179              3551.6329              3555.7027
 Red. masses --     1.9400                 2.0369                 2.1700
 Frc consts  --     0.0000                 0.0000                 0.0000
 IR Inten    --    10.5966                45.9140                 8.7079
 Raman Activ --     0.0000                 0.0000                 0.0000
 Depolar     --     0.0000                 0.0000                 0.0000
 Atom AN      X      Y      Z        X      Y      Z        X      Y      Z
   1   8     0.00   0.00   0.00     0.00   0.00   0.00     0.00   0.00   0.00
   2   6    -0.00  -0.00  -0.00     0.00  -0.00  -0.00     0.00   0.00  -0.00
   3   1     0.00   0.00   0.00     0.00   0.00   0.00     0.00  -0.00   0.00
   4   1    -0.00  -0.00   0.00    -0.00  -0.00   0.00    -0.00  -0.00   0.00
   5   6     0.00   0.00  -0.00     0.00   0.00   0.00     0.00   0.00   0.00
   6   1    -0.00  -0.00  -0.00    -0.00   0.00  -0.00     0.00   0.00  -0.00
   7   1    -0.00  -0.00   0.00     0.00   0.00   0.00    -0.00   0.00  -0.00
   8   7     0.00   0.00   0.00     0.00   0.00   0.00     0.00   0.00  -0.00
   9   6     0.00   0.00   0.00     0.00   0.00  -0.00    -0.00  -0.00  -0.00
  10   1    -0.00  -0.00  -0.00     0.00   0.00   0.00     0.00   0.00   0.00
  11   1     0.00   0.00   0.00    -0.00   0.00   0.00    -0.00  -0.00   0.00
  12   1    -0.00  -0.00   0.00    -0.00  -0.00  -0.00    -0.00  -0.00  -0.00
  13   6     0.00   0.00   0.00    -0.00   0.00  -0.00     0.00   0.00  -0.00
  14   1    -0.00  -0.00  -0.00     0.00   0.00   0.00     0.00  -0.00   0.00
  15   1    -0.00  -0.00   0.00    -0.00   0.00   0.00    -0.00   0.00  -0.00
  16   1     0.00  -0.00   0.00    -0.00  -0.00   0.00    -0.00  -0.00   0.00
  17   6     0.00   0.00  -0.00    -0.00  -0.00   0.00     0.00   0.00   0.00
  18   1     0.00  -0.00   0.00    -0.00   0.00   0.00    -0.00   0.00  -0.00
  19   1    -0.00   0.00   0.00    -0.00  -0.00   0.00    -0.00  -0.00  -0.00
  20   1     0.00   0.00   0.00     0.00   0.00   0.00    -0.00  -0.00   0.00
  21   1    -0.00  -0.00  -0.00    -0.00  -0.00  -0.00    -0.00  -0.00  -0.00
  22   6     0.00  -0.00   0.00    -0.00  -0.00   0.00     0.00   0.01  -0.01
  23   8    -0.00   0.00  -0.00    -0.00   0.00  -0.00    -0.00  -0.00   0.00
  24   7    -0.00   0.00  -0.01    -0.00  -0.00   0.00     0.05   0.13  -0.26
  25   1    -0.00  -0.01   0.01     0.00   0.00  -0.00    -0.34  -0.50   0.37
  26   1     0.00  -0.00   0.02    -0.00   0.00  -0.00     0.13  -0.01   0.62
  27   7     0.00   0.00   0.00    -0.00  -0.00  -0.00    -0.01   0.00  -0.02
  28   1    -0.00   0.00  -0.01    -0.00   0.00  -0.00     0.03  -0.02   0.07
  29   1    -0.00  -0.00  -0.00     0.01   0.00   0.00     0.01   0.00   0.00
  30   6    -0.01  -0.00   0.00     0.00   0.00   0.00     0.00  -0.00  -0.00
  31   8     0.00   0.00  -0.00    -0.00  -0.00  -0.00     0.00   0.00   0.00
  32   7    -0.26  -0.04  -0.06     0.00   0.00  -0.00     0.01   0.00  -0.00
  33   1     0.09   0.03  -0.11    -0.00  -0.00   0.00    -0.01  -0.00   0.01
  34   1     0.89   0.11   0.32    -0.00  -0.00  -0.00    -0.01  -0.00  -0.01
  35   7     0.01   0.00   0.03    -0.00  -0.00  -0.00    -0.00  -0.00  -0.00
  36   1    -0.03  -0.01  -0.01    -0.00   0.00  -0.00     0.01   0.00   0.00
  37   1    -0.01  -0.00  -0.09     0.00   0.00   0.00     0.00   0.00   0.01
  38   6    -0.00  -0.00   0.00    -0.00  -0.00   0.00    -0.00   0.00   0.00
  39   8     0.00   0.00  -0.00     0.00   0.00  -0.00     0.00   0.00  -0.00
  40   7     0.00   0.00   0.00     0.00   0.00  -0.00    -0.00  -0.00   0.00
  41   1     0.00  -0.00  -0.00    -0.00   0.00   0.00     0.00  -0.00  -0.00
  42   1    -0.00  -0.00   0.00    -0.01  -0.01   0.01     0.00   0.00  -0.00
  43   7    -0.00  -0.00   0.00     0.00   0.01  -0.00     0.00   0.00  -0.00
  44   1     0.00   0.00  -0.00    -0.01  -0.01   0.01    -0.00  -0.00   0.00
  45   1    -0.00   0.00   0.00     0.00  -0.01  -0.00     0.00  -0.00  -0.00
  46   6    -0.00  -0.00   0.00    -0.00  -0.01   0.00    -0.00  -0.00   0.00
  47   8     0.00   0.00   0.00     0.00   0.00  -0.00     0.00   0.00  -0.00
  48   7     0.00   0.00   0.00    -0.00   0.00   0.02     0.00   0.00   0.00
  49   1    -0.00  -0.00  -0.00    -0.00  -0.03  -0.06    -0.00  -0.00  -0.00
  50   1     0.00   0.00   0.00     0.02   0.02  -0.03    -0.00  -0.00   0.00
  51   7    -0.00  -0.00  -0.00    -0.12  -0.25  -0.01    -0.00  -0.00  -0.00
  52   1     0.00   0.00  -0.00     0.13   0.13  -0.19     0.00   0.00  -0.00
  53   1     0.00   0.00   0.00     0.33   0.83   0.23     0.00   0.00   0.00
                    151                    152                    153
                        a                      a                      a 
 Frequencies --  3560.6710              3562.4374              3566.1147
 Red. masses --     2.1895                 2.1778                 2.1759
 Frc consts  --     0.0000                 0.0000                 0.0000
 IR Inten    --    14.2911                10.7970                17.6294
 Raman Activ --     0.0000                 0.0000                 0.0000
 Depolar     --     0.0000                 0.0000                 0.0000
 Atom AN      X      Y      Z        X      Y      Z        X      Y      Z
   1   8    -0.00  -0.00  -0.00    -0.00   0.00  -0.00     0.00   0.00   0.00
   2   6    -0.00   0.00   0.00    -0.00  -0.00   0.00     0.00  -0.00  -0.00
   3   1    -0.00  -0.00  -0.00    -0.00  -0.00  -0.00     0.00  -0.00   0.00
   4   1     0.00  -0.00  -0.00     0.00   0.00  -0.00    -0.00   0.00  -0.00
   5   6    -0.00  -0.00  -0.00    -0.00   0.00   0.00    -0.00  -0.00   0.00
   6   1    -0.00   0.00   0.00     0.00   0.00   0.00     0.00   0.00  -0.00
   7   1     0.00  -0.00   0.00     0.00  -0.00  -0.00     0.00  -0.00   0.00
   8   7    -0.00  -0.00  -0.00    -0.00  -0.00  -0.00    -0.00   0.00   0.00
   9   6    -0.00  -0.00  -0.00     0.00   0.00  -0.00     0.00   0.00  -0.00
  10   1     0.00   0.00   0.00     0.00   0.00   0.00     0.00   0.00  -0.00
  11   1     0.00   0.00  -0.00    -0.00  -0.00   0.00    -0.00  -0.00   0.00
  12   1     0.00   0.00  -0.00     0.00  -0.00  -0.00    -0.00  -0.00  -0.00
  13   6    -0.00   0.00  -0.00     0.00   0.00  -0.00     0.00   0.00  -0.00
  14   1     0.00   0.00   0.00     0.00   0.00   0.00     0.00   0.00   0.00
  15   1     0.00  -0.00   0.00     0.00   0.00  -0.00     0.00  -0.00   0.00
  16   1    -0.00   0.00   0.00    -0.00   0.00   0.00    -0.00  -0.00   0.00
  17   6    -0.00   0.00   0.00     0.00   0.00  -0.00    -0.00   0.00  -0.00
  18   1     0.00   0.00  -0.00     0.00  -0.00  -0.00     0.00  -0.00   0.00
  19   1    -0.00   0.00  -0.00     0.00  -0.00  -0.00     0.00  -0.00   0.00
  20   1     0.00   0.00  -0.00    -0.00  -0.00  -0.00    -0.00  -0.00   0.00
  21   1     0.00   0.00   0.00     0.00   0.00   0.00    -0.00  -0.00  -0.00
  22   6     0.00   0.00  -0.00    -0.00   0.00  -0.00    -0.00   0.00  -0.00
  23   8    -0.00  -0.00  -0.00    -0.00  -0.00   0.00    -0.00  -0.00   0.00
  24   7     0.00   0.00  -0.00     0.00   0.00  -0.00     0.00   0.00  -0.00
  25   1    -0.00  -0.00   0.00    -0.00  -0.01   0.00    -0.00  -0.00   0.00
  26   1     0.00  -0.00   0.00     0.00  -0.00   0.01     0.00  -0.00   0.00
  27   7    -0.00  -0.00  -0.00    -0.00   0.00  -0.00    -0.00  -0.00  -0.00
  28   1     0.00  -0.00   0.00     0.00  -0.00   0.00     0.00  -0.00   0.00
  29   1     0.00   0.00   0.00     0.00   0.00   0.00     0.00   0.00   0.00
  30   6     0.00   0.00   0.00     0.01   0.00   0.01    -0.00  -0.00  -0.00
  31   8    -0.00  -0.00  -0.00    -0.00  -0.00  -0.00     0.00   0.00   0.00
  32   7     0.00   0.00   0.00     0.02   0.00   0.00     0.00   0.00   0.00
  33   1    -0.00  -0.00   0.00    -0.01  -0.00   0.01    -0.00  -0.00   0.00
  34   1    -0.00  -0.00  -0.00    -0.08  -0.01  -0.03    -0.00  -0.00  -0.00
  35   7     0.00   0.00   0.00     0.17   0.07   0.23    -0.00  -0.00  -0.00
  36   1    -0.00  -0.00  -0.00    -0.56  -0.24  -0.20     0.00   0.00   0.00
  37   1    -0.00  -0.00  -0.00    -0.10  -0.02  -0.69     0.00   0.00   0.00
  38   6     0.00  -0.01  -0.01    -0.00   0.00   0.00    -0.01  -0.01   0.01
  39   8     0.00   0.00   0.00     0.00   0.00  -0.00     0.00   0.00  -0.00
  40   7     0.10   0.03  -0.19    -0.00  -0.00   0.00    -0.09  -0.03   0.18
  41   1    -0.21   0.20   0.42     0.00  -0.00  -0.00     0.20  -0.19  -0.39
  42   1    -0.15  -0.30   0.31     0.00   0.00  -0.00     0.15   0.30  -0.31
  43   7    -0.06  -0.19   0.04     0.00   0.00  -0.00    -0.07  -0.20   0.05
  44   1     0.23   0.25  -0.26    -0.00  -0.00   0.00     0.25   0.27  -0.29
  45   1    -0.00   0.48   0.11     0.00  -0.00  -0.00    -0.00   0.49   0.11
  46   6     0.00   0.00   0.00    -0.00  -0.00   0.00    -0.00  -0.00   0.00
  47   8    -0.00  -0.00  -0.00    -0.00   0.00  -0.00    -0.00  -0.00   0.00
  48   7     0.00  -0.00  -0.00     0.00  -0.00  -0.00    -0.00  -0.00   0.00
  49   1     0.00   0.00   0.00     0.00   0.00   0.00    -0.00  -0.00  -0.01
  50   1    -0.00  -0.00   0.00    -0.00  -0.00   0.00     0.01   0.01  -0.01
  51   7    -0.00  -0.00  -0.00    -0.00  -0.00  -0.00    -0.00  -0.01   0.00
  52   1     0.00   0.00  -0.00     0.00  -0.00  -0.00     0.01   0.01  -0.01
  53   1     0.00   0.00   0.00     0.00   0.00   0.00     0.01   0.02   0.01
