 Entering Gaussian System
 *********************************************
 Gaussian 98:
 frequency output generated by the xtb code
 *********************************************
                         Standard orientation:
 --------------------------------------------------------------------
  Center     Atomic     Atomic              Coordinates (Angstroms)
  Number     Number      Type              X           Y           Z
 --------------------------------------------------------------------
    1          8             0       -0.545225   -2.345855    2.397691
    2          6             0       -0.949814   -1.424110    1.403031
    3          1             0       -1.929731   -1.710879    0.998358
    4          1             0       -1.041329   -0.414337    1.819918
    5          6             0        0.085519   -1.311357    0.286956
    6          1             0        1.004251   -0.882410    0.687081
    7          1             0       -0.341157   -0.639947   -0.461616
    8          7             0        0.461916   -2.568023   -0.414557
    9          6             0        1.334115   -3.391632    0.437652
   10          1             0        2.250540   -2.837605    0.636346
   11          1             0        1.579021   -4.322461   -0.069818
   12          1             0        0.835624   -3.604536    1.379525
   13          6             0        1.212879   -2.184946   -1.623269
   14          1             0        2.096443   -1.622914   -1.328374
   15          1             0        0.574098   -1.572310   -2.257061
   16          1             0        1.520418   -3.076871   -2.165259
   17          6             0       -0.735257   -3.318369   -0.815465
   18          1             0       -1.255663   -3.691535    0.062787
   19          1             0       -0.451028   -4.164601   -1.438142
   20          1             0       -1.384758   -2.653702   -1.384779
   21          1             0       -1.061673   -2.203950    3.196218
   22          6             0        3.740489   -0.341253    1.466178
   23          8             0        3.294724   -0.795592    0.407674
   24          7             0        3.124707    0.652180    2.122515
   25          1             0        2.283491    1.069781    1.714172
   26          1             0        3.503878    1.039703    2.966370
   27          7             0        4.849383   -0.868693    2.041534
   28          1             0        5.289591   -0.433128    2.831459
   29          1             0        5.384456   -1.537729    1.516825
   30          6             0        0.947870    1.773521   -0.418259
   31          8             0        0.858169    1.626588    0.811475
   32          7             0        1.991832    1.260664   -1.097322
   33          1             0        2.619990    0.622836   -0.617385
   34          1             0        2.059858    1.353443   -2.093652
   35          7             0        0.037033    2.476208   -1.111689
   36          1             0        0.059795    2.470238   -2.115728
   37          1             0       -0.864831    2.655645   -0.669057
   38          6             0       -2.306812    0.008144   -2.869769
   39          8             0       -1.369362   -0.548816   -2.303726
   40          7             0       -2.776779   -0.448284   -4.062689
   41          1             0       -2.265733   -1.171460   -4.536043
   42          1             0       -3.461085    0.062074   -4.590330
   43          7             0       -2.939415    1.080318   -2.364151
   44          1             0       -3.736217    1.476101   -2.828559
   45          1             0       -2.709928    1.442388   -1.446652
   46          6             0       -2.534964    2.627637    1.322274
   47          8             0       -2.491342    2.481586    0.099885
   48          7             0       -1.491552    2.325612    2.115585
   49          1             0       -0.591923    2.108608    1.672469
   50          1             0       -1.493031    2.588964    3.084488
   51          7             0       -3.672718    3.037213    1.935660
   52          1             0       -3.697928    3.269464    2.911609
   53          1             0       -4.445589    3.322289    1.361039
 --------------------------------------------------------------------
     1 basis functions        1 primitive gaussians
     1 alpha electrons        1 beta electrons

 Harmonic frequencies (cm**-1), IR intensities (km*mol⁻¹),
 Raman scattering activities (A**4/amu), Raman depolarization ratios,
 reduced masses (AMU), force constants (mDyne/A) and normal coordinates:
                      1                      2                      3
                        a                      a                      a 
 Frequencies --    13.7905                20.7452                24.1362
 Red. masses --    12.4808                12.4459                12.4984
 Frc consts  --     0.0000                 0.0000                 0.0000
 IR Inten    --     0.2969                 1.1503                 0.3014
 Raman Activ --     0.0000                 0.0000                 0.0000
 Depolar     --     0.0000                 0.0000                 0.0000
 Atom AN      X      Y      Z        X      Y      Z        X      Y      Z
   1   8     0.23  -0.25  -0.04    -0.29   0.06  -0.20     0.15   0.15   0.13
   2   6     0.12  -0.18   0.03    -0.13   0.10  -0.18     0.02   0.06   0.09
   3   1     0.03  -0.06   0.02    -0.03   0.04  -0.08     0.00  -0.00   0.05
   4   1     0.03  -0.06   0.03    -0.04   0.03  -0.04    -0.01   0.02   0.02
   5   6     0.07  -0.08  -0.01    -0.03   0.10  -0.09    -0.04   0.07   0.03
   6   1     0.02  -0.02  -0.01    -0.02   0.03  -0.00    -0.01   0.03  -0.01
   7   1     0.00  -0.01   0.01     0.01   0.03  -0.03    -0.03   0.02   0.01
   8   7     0.09  -0.02  -0.10     0.02   0.11  -0.07    -0.05   0.08   0.03
   9   6     0.14  -0.05  -0.18    -0.02   0.11  -0.01    -0.00   0.09   0.01
  10   1     0.04  -0.01  -0.05    -0.01   0.03   0.01    -0.00   0.03  -0.01
  11   1     0.05  -0.00  -0.07     0.00   0.03   0.00    -0.00   0.03   0.00
  12   1     0.05  -0.04  -0.05    -0.02   0.04  -0.01     0.01   0.03   0.01
  13   6     0.03   0.08  -0.10     0.08   0.10  -0.02    -0.10   0.08   0.00
  14   1     0.01   0.03  -0.03     0.02   0.03   0.01    -0.03   0.03  -0.01
  15   1    -0.00   0.03  -0.01     0.03   0.03  -0.02    -0.04   0.02   0.01
  16   1     0.01   0.04  -0.05     0.04   0.03   0.00    -0.03   0.02   0.00
  17   6     0.09  -0.03  -0.10     0.05   0.09  -0.12    -0.05   0.05   0.08
  18   1     0.04  -0.03  -0.03     0.00   0.03  -0.04    -0.00   0.01   0.03
  19   1     0.03   0.00  -0.05     0.03   0.03  -0.03    -0.02   0.02   0.02
  20   1     0.01  -0.01  -0.01     0.02   0.02  -0.05    -0.02   0.01   0.03
  21   1     0.07  -0.08  -0.00    -0.09   0.01  -0.06     0.05   0.04   0.04
  22   6    -0.05  -0.03   0.08     0.02  -0.01   0.11    -0.00  -0.04   0.02
  23   8     0.03   0.01   0.04     0.03   0.02   0.11     0.01   0.02  -0.02
  24   7    -0.14  -0.09   0.11     0.08   0.05   0.07     0.03  -0.03   0.03
  25   1    -0.03  -0.03   0.02     0.03   0.02   0.01     0.01   0.00   0.01
  26   1    -0.05  -0.03   0.04     0.02   0.00   0.03     0.00  -0.03   0.02
  27   7    -0.06  -0.01   0.13    -0.05  -0.10   0.18    -0.06  -0.13   0.04
  28   1    -0.04  -0.01   0.05    -0.01  -0.03   0.05    -0.02  -0.05   0.02
  29   1    -0.00   0.01   0.03    -0.02  -0.04   0.05    -0.02  -0.03   0.01
  30   6     0.01   0.01   0.03     0.12   0.02   0.01     0.11   0.09  -0.00
  31   8    -0.08  -0.08   0.02     0.14   0.09   0.02     0.09   0.05  -0.01
  32   7     0.03   0.01   0.07     0.16   0.06   0.04     0.12   0.09   0.00
  33   1     0.00   0.00   0.02     0.04   0.02   0.02     0.03   0.02   0.00
  34   1     0.03   0.03   0.02     0.04  -0.00   0.01     0.05   0.04   0.00
  35   7     0.08   0.08   0.02     0.08  -0.08  -0.03     0.15   0.14   0.00
  36   1     0.04   0.04   0.01     0.02  -0.03  -0.01     0.05   0.05   0.00
  37   1     0.02   0.03  -0.01     0.02  -0.03  -0.01     0.04   0.04  -0.00
  38   6    -0.12  -0.04   0.11    -0.14  -0.10   0.03    -0.10   0.00  -0.03
  39   8    -0.11  -0.02   0.12     0.05   0.07  -0.13    -0.25  -0.12   0.07
  40   7    -0.25  -0.19   0.22    -0.32  -0.23   0.14    -0.22  -0.10   0.05
  41   1    -0.08  -0.06   0.07    -0.06  -0.03   0.01    -0.10  -0.07   0.04
  42   1    -0.06  -0.05   0.05    -0.12  -0.08   0.06    -0.02  -0.00  -0.01
  43   7    -0.03   0.05   0.03    -0.25  -0.21   0.14     0.18   0.27  -0.24
  44   1    -0.02   0.00   0.01    -0.10  -0.09   0.07     0.05   0.07  -0.06
  45   1     0.01   0.04  -0.01    -0.03  -0.03   0.02     0.04   0.07  -0.06
  46   6    -0.02   0.19  -0.11     0.09  -0.06   0.00     0.00  -0.19  -0.07
  47   8     0.02   0.28  -0.13     0.10  -0.14   0.01     0.10   0.02  -0.10
  48   7    -0.10   0.06  -0.08     0.12   0.03   0.01    -0.02  -0.27  -0.06
  49   1    -0.03  -0.01  -0.01     0.04   0.01   0.00     0.01  -0.03  -0.01
  50   1    -0.03   0.00  -0.02     0.03   0.02  -0.00    -0.03  -0.11  -0.00
  51   7    -0.01   0.31  -0.16     0.09  -0.09  -0.00    -0.07  -0.40  -0.07
  52   1    -0.01   0.07  -0.04     0.03  -0.01  -0.01    -0.04  -0.15  -0.01
  53   1     0.01   0.11  -0.05     0.02  -0.04  -0.00    -0.01  -0.09  -0.02
                      4                      5                      6
                        a                      a                      a 
 Frequencies --    28.8442                37.1556                41.1832
 Red. masses --    12.9563                12.7062                12.5476
 Frc consts  --     0.0000                 0.0000                 0.0000
 IR Inten    --     0.9455                 1.8642                 1.2637
 Raman Activ --     0.0000                 0.0000                 0.0000
 Depolar     --     0.0000                 0.0000                 0.0000
 Atom AN      X      Y      Z        X      Y      Z        X      Y      Z
   1   8     0.49   0.32   0.17    -0.05   0.21  -0.09    -0.01  -0.18  -0.03
   2   6     0.21   0.09   0.06     0.00   0.11  -0.16    -0.08  -0.15   0.01
   3   1     0.05  -0.02   0.07     0.00   0.03  -0.05    -0.02  -0.06  -0.00
   4   1     0.05   0.04  -0.02     0.00   0.04  -0.07    -0.05  -0.05   0.02
   5   6     0.06   0.04  -0.07     0.04   0.01  -0.14    -0.09  -0.02   0.01
   6   1     0.03   0.02  -0.05     0.01   0.01  -0.04    -0.04   0.02   0.01
   7   1    -0.01   0.00  -0.02     0.02  -0.01  -0.06    -0.05  -0.02   0.01
   8   7     0.00   0.02  -0.07     0.06  -0.05  -0.03     0.04   0.02  -0.00
   9   6    -0.00  -0.01  -0.08     0.04   0.03   0.06     0.15   0.11  -0.03
  10   1     0.00  -0.01  -0.03     0.01   0.01   0.01     0.03   0.06  -0.02
  11   1    -0.01  -0.00  -0.03     0.01  -0.01   0.04     0.07   0.04  -0.01
  12   1     0.00   0.00  -0.02     0.01   0.03   0.02     0.06   0.02  -0.01
  13   6    -0.02  -0.01  -0.08     0.08  -0.14  -0.04    -0.04   0.11  -0.02
  14   1     0.00  -0.01  -0.03     0.02  -0.03  -0.02    -0.03   0.06  -0.01
  15   1    -0.00   0.00  -0.02     0.02  -0.06  -0.03    -0.04   0.01  -0.00
  16   1    -0.02  -0.01  -0.02     0.03  -0.05   0.01     0.01   0.04  -0.01
  17   6    -0.03   0.06  -0.03     0.07  -0.08   0.02     0.11  -0.11   0.02
  18   1    -0.01   0.02  -0.01     0.02  -0.00   0.01     0.05  -0.05   0.01
  19   1    -0.02   0.01  -0.01     0.02  -0.04   0.03     0.05  -0.02   0.00
  20   1    -0.01   0.02  -0.00     0.02  -0.04  -0.01     0.01  -0.05   0.01
  21   1     0.16   0.11   0.06    -0.02   0.07  -0.03    -0.01  -0.08  -0.01
  22   6    -0.12  -0.10   0.06    -0.01  -0.04  -0.04    -0.02   0.07   0.08
  23   8    -0.04  -0.00  -0.02     0.02   0.06  -0.10    -0.02   0.08   0.09
  24   7    -0.10  -0.09   0.05    -0.09  -0.17   0.08     0.14   0.29  -0.09
  25   1    -0.01  -0.00   0.00    -0.02  -0.04   0.03     0.03   0.07  -0.02
  26   1    -0.05  -0.06   0.04    -0.03  -0.06   0.03     0.01   0.05   0.00
  27   7    -0.25  -0.27   0.18     0.02  -0.04  -0.10    -0.20  -0.11   0.26
  28   1    -0.08  -0.09   0.06    -0.00  -0.03  -0.01    -0.04  -0.01   0.05
  29   1    -0.06  -0.07   0.05     0.02   0.02  -0.05    -0.06  -0.05   0.09
  30   6    -0.02   0.01  -0.02    -0.05   0.05   0.12    -0.01  -0.04  -0.08
  31   8     0.01   0.06  -0.01    -0.06  -0.03   0.12     0.05   0.03  -0.08
  32   7     0.01   0.05  -0.01    -0.06   0.10   0.09    -0.01  -0.04  -0.08
  33   1     0.01   0.02  -0.00    -0.01   0.02   0.01     0.01   0.01  -0.01
  34   1    -0.01  -0.00  -0.00    -0.01   0.05   0.03    -0.00  -0.02  -0.02
  35   7    -0.08  -0.09  -0.04    -0.05   0.11   0.17    -0.08  -0.15  -0.09
  36   1    -0.02  -0.04  -0.01    -0.01   0.05   0.05    -0.03  -0.05  -0.02
  37   1    -0.02  -0.03  -0.01    -0.02   0.01   0.05    -0.02  -0.04  -0.01
  38   6    -0.02  -0.01  -0.04     0.01  -0.13  -0.10    -0.08  -0.02  -0.06
  39   8     0.04   0.04  -0.09    -0.06  -0.30  -0.14    -0.31  -0.28   0.02
  40   7     0.08   0.08  -0.12    -0.19  -0.15  -0.01     0.00   0.20  -0.18
  41   1     0.04   0.05  -0.05    -0.09  -0.07  -0.01    -0.05   0.01  -0.03
  42   1    -0.00   0.00  -0.02    -0.02   0.00  -0.01     0.03   0.08  -0.05
  43   7    -0.20  -0.18   0.08     0.33   0.10  -0.18     0.09   0.10  -0.09
  44   1    -0.05  -0.04   0.02     0.06   0.02  -0.01     0.06   0.07  -0.04
  45   1    -0.05  -0.05   0.02     0.07  -0.02  -0.03     0.00  -0.01  -0.00
  46   6    -0.01  -0.01   0.02    -0.02   0.06   0.11     0.08   0.01   0.08
  47   8    -0.05  -0.16   0.03    -0.06  -0.18   0.15     0.00  -0.14   0.10
  48   7     0.04   0.15   0.01     0.01   0.25   0.14     0.12   0.04   0.05
  49   1     0.01   0.04   0.00    -0.00   0.04   0.04     0.02  -0.00   0.00
  50   1     0.02   0.07  -0.00     0.01   0.11   0.03     0.05   0.04   0.00
  51   7    -0.01  -0.01   0.01    -0.00   0.18   0.08     0.15   0.15   0.11
  52   1     0.00   0.03  -0.00     0.00   0.09   0.01     0.06   0.05   0.03
  53   1    -0.01  -0.03   0.00    -0.01   0.01   0.01     0.03   0.02   0.04
                      7                      8                      9
                        a                      a                      a 
 Frequencies --    45.6883                48.0661                52.0791
 Red. masses --    12.8800                12.2814                12.6711
 Frc consts  --     0.0000                 0.0000                 0.0000
 IR Inten    --     4.1988                 1.7179                 1.1731
 Raman Activ --     0.0000                 0.0000                 0.0000
 Depolar     --     0.0000                 0.0000                 0.0000
 Atom AN      X      Y      Z        X      Y      Z        X      Y      Z
   1   8     0.07   0.02  -0.02    -0.10   0.11  -0.01     0.19   0.30   0.12
   2   6     0.08   0.01  -0.04    -0.06   0.02  -0.10    -0.04  -0.00  -0.05
   3   1     0.02   0.01  -0.01    -0.01  -0.01  -0.04    -0.00  -0.08   0.01
   4   1     0.03   0.01  -0.02    -0.04   0.01  -0.05    -0.06   0.02  -0.07
   5   6     0.08  -0.04  -0.04     0.01  -0.01  -0.03    -0.09  -0.01  -0.09
   6   1     0.03  -0.03  -0.01    -0.01   0.01  -0.00    -0.03   0.01  -0.04
   7   1     0.03  -0.00  -0.01     0.01  -0.02  -0.03    -0.04  -0.02  -0.03
   8   7     0.02  -0.06  -0.05     0.09  -0.04   0.06    -0.05  -0.02  -0.06
   9   6    -0.07  -0.13  -0.04     0.07   0.04   0.14    -0.11  -0.01   0.01
  10   1    -0.02  -0.05   0.01     0.02   0.02   0.04    -0.04  -0.00   0.02
  11   1    -0.03  -0.04  -0.02     0.03   0.00   0.06    -0.02  -0.00   0.01
  12   1    -0.04  -0.04  -0.02     0.01   0.03   0.04    -0.05  -0.00  -0.01
  13   6     0.08  -0.09  -0.02     0.13  -0.08   0.06     0.04  -0.02  -0.01
  14   1     0.03  -0.05   0.01     0.03  -0.01   0.02     0.01  -0.01   0.01
  15   1     0.04  -0.01  -0.01     0.04  -0.04   0.00     0.02  -0.00  -0.01
  16   1     0.01  -0.03  -0.01     0.05  -0.03   0.04     0.02  -0.01   0.00
  17   6    -0.02   0.03  -0.10     0.13  -0.10   0.04    -0.02  -0.02  -0.15
  18   1    -0.02   0.01  -0.04     0.03  -0.02   0.01    -0.02  -0.01  -0.06
  19   1    -0.02   0.01  -0.03     0.05  -0.03   0.03     0.01  -0.00  -0.04
  20   1     0.01   0.03  -0.03     0.04  -0.04  -0.00     0.01  -0.00  -0.05
  21   1     0.02   0.02  -0.00    -0.05   0.03  -0.02     0.07   0.11   0.04
  22   6    -0.05   0.04   0.03    -0.13  -0.02  -0.05     0.05   0.07   0.07
  23   8    -0.11  -0.07   0.11     0.02   0.13  -0.19    -0.03  -0.05   0.18
  24   7     0.13   0.29  -0.18    -0.23  -0.09  -0.02     0.07   0.11   0.04
  25   1     0.02   0.06  -0.04    -0.04  -0.01  -0.03     0.00   0.00   0.02
  26   1     0.03   0.08  -0.04    -0.09  -0.05   0.02     0.04   0.06  -0.01
  27   7    -0.17  -0.07   0.17    -0.26  -0.14   0.08     0.17   0.22  -0.00
  28   1    -0.02   0.01   0.01    -0.09  -0.05   0.04     0.05   0.08  -0.02
  29   1    -0.06  -0.05   0.07    -0.04  -0.01   0.01     0.03   0.04   0.01
  30   6    -0.09  -0.04  -0.05    -0.03   0.09  -0.15     0.00  -0.10   0.05
  31   8    -0.03   0.06  -0.04    -0.04   0.02  -0.19    -0.04  -0.13   0.05
  32   7    -0.19  -0.19  -0.09    -0.07   0.07  -0.19     0.03  -0.09   0.08
  33   1    -0.04  -0.04  -0.01    -0.01   0.02  -0.05     0.00  -0.02   0.03
  34   1    -0.06  -0.07  -0.03    -0.01   0.04  -0.05     0.02  -0.02   0.02
  35   7    -0.09  -0.03  -0.05    -0.00   0.19  -0.11     0.02  -0.11   0.03
  36   1    -0.05  -0.04  -0.01    -0.00   0.07  -0.03     0.01  -0.03   0.01
  37   1    -0.01   0.02  -0.00     0.01   0.06  -0.02     0.00  -0.02   0.00
  38   6     0.12   0.08   0.02     0.07  -0.02   0.09    -0.05   0.01  -0.08
  39   8     0.27   0.24  -0.04     0.12  -0.06   0.02    -0.02  -0.03  -0.20
  40   7    -0.14  -0.23   0.24     0.04   0.06   0.08    -0.16   0.06  -0.07
  41   1    -0.02  -0.05   0.06     0.00   0.02   0.01    -0.05   0.02  -0.04
  42   1    -0.02  -0.06   0.05    -0.00   0.02   0.04    -0.05   0.03  -0.00
  43   7     0.26   0.24  -0.13     0.07  -0.08   0.21    -0.01  -0.01  -0.00
  44   1     0.01  -0.01   0.01     0.02  -0.00   0.06    -0.01   0.01   0.02
  45   1     0.06   0.06  -0.03     0.04  -0.02   0.05     0.01  -0.01  -0.00
  46   6    -0.03  -0.00   0.07     0.04  -0.02   0.05     0.01  -0.05   0.02
  47   8    -0.06   0.04   0.08     0.04   0.22   0.03     0.02   0.00   0.02
  48   7     0.01   0.04   0.04    -0.02  -0.39   0.01    -0.12  -0.48   0.06
  49   1     0.00   0.02   0.00    -0.01  -0.07  -0.01    -0.03  -0.11   0.01
  50   1     0.01  -0.00   0.01     0.01  -0.12   0.01    -0.01  -0.10   0.01
  51   7    -0.03  -0.09   0.13     0.12   0.07   0.12     0.14   0.32  -0.01
  52   1     0.00  -0.02   0.03     0.03  -0.05   0.05     0.02   0.02   0.01
  53   1    -0.01  -0.02   0.04     0.04   0.07   0.05     0.05   0.12   0.00
                     10                     11                     12
                        a                      a                      a 
 Frequencies --    54.2083                56.0130                69.2102
 Red. masses --    12.7429                12.4517                11.2047
 Frc consts  --     0.0000                 0.0000                 0.0000
 IR Inten    --     0.0232                 1.7817                 0.8199
 Raman Activ --     0.0000                 0.0000                 0.0000
 Depolar     --     0.0000                 0.0000                 0.0000
 Atom AN      X      Y      Z        X      Y      Z        X      Y      Z
   1   8    -0.02   0.03  -0.02     0.01   0.10  -0.13     0.12  -0.05   0.21
   2   6     0.00   0.02  -0.03     0.09   0.09  -0.14    -0.15  -0.27   0.08
   3   1     0.00   0.01  -0.01     0.02   0.05  -0.04    -0.03  -0.16   0.04
   4   1     0.00   0.01  -0.01     0.05   0.03  -0.05    -0.11  -0.07  -0.01
   5   6     0.02  -0.01  -0.03     0.10  -0.04  -0.14    -0.19  -0.13   0.06
   6   1     0.00  -0.00  -0.01     0.04  -0.02  -0.05    -0.06  -0.02   0.02
   7   1     0.01  -0.01  -0.01     0.04  -0.02  -0.05    -0.07  -0.04   0.02
   8   7     0.01  -0.04   0.01     0.03  -0.12  -0.06    -0.09  -0.07  -0.01
   9   6     0.01  -0.01   0.03     0.03  -0.07  -0.02    -0.19  -0.15   0.02
  10   1     0.00  -0.00   0.00     0.01  -0.02  -0.02    -0.07  -0.05   0.06
  11   1     0.00  -0.01   0.02     0.00  -0.03   0.01    -0.03  -0.03  -0.01
  12   1     0.00   0.00   0.01     0.01  -0.00  -0.00    -0.09  -0.07  -0.02
  13   6     0.01  -0.07  -0.01    -0.01  -0.22  -0.11     0.08   0.07   0.13
  14   1     0.00  -0.01  -0.01     0.00  -0.06  -0.05     0.01   0.01   0.09
  15   1    -0.00  -0.03  -0.01    -0.00  -0.08  -0.04     0.05   0.04   0.03
  16   1     0.00  -0.02   0.01    -0.01  -0.08  -0.02     0.04   0.04   0.02
  17   6     0.01  -0.05   0.03    -0.02  -0.10   0.04    -0.02  -0.03  -0.27
  18   1     0.00  -0.01   0.01     0.00  -0.00   0.03    -0.04  -0.04  -0.11
  19   1     0.00  -0.02   0.02    -0.02  -0.05   0.03     0.03   0.01  -0.09
  20   1     0.00  -0.02   0.01    -0.00  -0.04   0.01     0.02   0.01  -0.08
  21   1    -0.01   0.01  -0.01     0.00   0.04  -0.03     0.04  -0.01   0.06
  22   6     0.07  -0.04  -0.11    -0.01   0.06   0.10    -0.09   0.06  -0.03
  23   8    -0.05  -0.06  -0.06    -0.05  -0.07   0.19    -0.19   0.03   0.02
  24   7     0.43   0.29  -0.30    -0.02   0.11   0.03    -0.04   0.10  -0.03
  25   1     0.08   0.06  -0.04    -0.01   0.01   0.01    -0.02   0.02  -0.00
  26   1     0.10   0.02  -0.05     0.00   0.06  -0.01     0.00   0.04  -0.02
  27   7    -0.10  -0.34  -0.01     0.05   0.19   0.10    -0.05   0.09  -0.10
  28   1     0.03  -0.07  -0.05     0.01   0.07   0.02     0.00   0.03  -0.04
  29   1    -0.06  -0.12  -0.00     0.01   0.03   0.05    -0.03   0.01  -0.03
  30   6     0.01   0.09   0.16     0.01  -0.02  -0.00     0.05   0.14  -0.03
  31   8    -0.04  -0.03   0.16    -0.03   0.00  -0.00    -0.01   0.02  -0.06
  32   7     0.03   0.17   0.15    -0.09  -0.23   0.01     0.06   0.17  -0.03
  33   1    -0.00   0.02   0.02    -0.03  -0.06   0.01    -0.01   0.02  -0.01
  34   1     0.01   0.07   0.04     0.00  -0.04   0.01     0.03   0.06  -0.01
  35   7     0.05   0.18   0.20     0.13   0.14  -0.01     0.13   0.29   0.01
  36   1     0.03   0.08   0.05     0.04   0.03  -0.00     0.05   0.11   0.00
  37   1     0.00   0.04   0.04     0.04   0.07  -0.01     0.03   0.06  -0.00
  38   6     0.01  -0.07   0.02    -0.07  -0.00   0.05     0.04  -0.07  -0.01
  39   8     0.01  -0.09   0.01    -0.16  -0.21  -0.02     0.08  -0.12  -0.10
  40   7     0.08   0.00  -0.04    -0.07   0.29  -0.05    -0.03  -0.02  -0.01
  41   1     0.02   0.01  -0.01    -0.06   0.06  -0.03    -0.01   0.00  -0.02
  42   1     0.01  -0.00  -0.00    -0.03   0.09   0.02    -0.01   0.01   0.01
  43   7    -0.07  -0.16   0.09    -0.03  -0.06   0.25     0.07  -0.11   0.09
  44   1     0.00  -0.02   0.01     0.03   0.05   0.06     0.02  -0.02   0.04
  45   1    -0.01  -0.03   0.02     0.03  -0.02   0.06     0.04  -0.04   0.02
  46   6    -0.11   0.04  -0.06     0.02   0.05  -0.01     0.10   0.01   0.02
  47   8    -0.05   0.12  -0.07     0.14   0.25  -0.03     0.14  -0.06   0.03
  48   7    -0.19  -0.08  -0.01     0.04   0.17  -0.00     0.14   0.22   0.03
  49   1    -0.04  -0.02   0.01     0.02   0.05   0.01     0.03   0.04   0.01
  50   1    -0.06  -0.03   0.00    -0.02  -0.02   0.02     0.03   0.05   0.01
  51   7    -0.12   0.11  -0.12    -0.12  -0.31  -0.02     0.04  -0.11  -0.01
  52   1    -0.05   0.00  -0.03    -0.04  -0.08  -0.00     0.01   0.01  -0.01
  53   1    -0.02   0.04  -0.04    -0.02  -0.07  -0.01     0.01  -0.05  -0.01
                     13                     14                     15
                        a                      a                      a 
 Frequencies --    74.1305                81.8454                87.1396
 Red. masses --    11.5164                11.0454                13.1257
 Frc consts  --     0.0000                 0.0000                 0.0000
 IR Inten    --     1.6762                 1.8231                 5.7847
 Raman Activ --     0.0000                 0.0000                 0.0000
 Depolar     --     0.0000                 0.0000                 0.0000
 Atom AN      X      Y      Z        X      Y      Z        X      Y      Z
   1   8     0.05   0.22   0.15     0.08  -0.07   0.00     0.01   0.03  -0.01
   2   6    -0.20  -0.13  -0.06    -0.08  -0.09   0.03    -0.01  -0.04  -0.06
   3   1    -0.03  -0.15  -0.02    -0.02  -0.05   0.03    -0.00  -0.03  -0.01
   4   1    -0.15  -0.02  -0.07    -0.04  -0.03   0.01    -0.01  -0.01  -0.04
   5   6    -0.16  -0.00  -0.01    -0.16  -0.02  -0.04    -0.01  -0.08  -0.06
   6   1    -0.08   0.04   0.02    -0.06   0.03  -0.03    -0.00  -0.01  -0.02
   7   1    -0.06  -0.02  -0.01    -0.08  -0.03  -0.02    -0.01  -0.04  -0.03
   8   7     0.09   0.05   0.04    -0.03  -0.03   0.04     0.02  -0.12   0.00
   9   6     0.08   0.15   0.14     0.24   0.23   0.00     0.03  -0.05   0.05
  10   1     0.00   0.07   0.06     0.05   0.12  -0.05     0.00  -0.00   0.01
  11   1     0.06   0.04   0.06     0.10   0.07   0.02     0.02  -0.02   0.03
  12   1     0.00   0.04   0.03     0.12   0.06   0.02     0.01  -0.01   0.02
  13   6     0.18   0.14   0.12    -0.26  -0.02  -0.11     0.01  -0.15  -0.01
  14   1     0.03   0.05   0.07    -0.08   0.03  -0.08    -0.00  -0.03  -0.01
  15   1     0.06   0.03   0.02    -0.12  -0.04  -0.02    -0.00  -0.06  -0.01
  16   1     0.08   0.05   0.04    -0.07  -0.01  -0.03     0.02  -0.05   0.01
  17   6     0.23  -0.10  -0.13     0.05  -0.29   0.29     0.04  -0.17   0.04
  18   1     0.05  -0.06  -0.06     0.07  -0.08   0.12     0.02  -0.04   0.02
  19   1     0.12  -0.01  -0.04     0.04  -0.09   0.11     0.02  -0.05   0.02
  20   1     0.06  -0.05  -0.05    -0.04  -0.14   0.08     0.00  -0.06   0.00
  21   1    -0.01   0.05   0.03     0.04  -0.02   0.02     0.01   0.02  -0.00
  22   6     0.11  -0.09  -0.05    -0.06  -0.01   0.01    -0.09   0.00   0.00
  23   8     0.20  -0.05  -0.10    -0.16  -0.06   0.07    -0.26  -0.03   0.08
  24   7     0.09  -0.12  -0.05    -0.03   0.00   0.03    -0.01   0.02   0.05
  25   1     0.02  -0.04  -0.01    -0.01   0.00   0.01    -0.00   0.02   0.02
  26   1     0.00  -0.05   0.01     0.01   0.02  -0.01     0.04   0.03  -0.02
  27   7     0.08  -0.14  -0.00    -0.01   0.02  -0.06    -0.01   0.02  -0.15
  28   1     0.01  -0.04   0.01     0.01   0.01  -0.02     0.02   0.00  -0.05
  29   1     0.03  -0.02  -0.01    -0.02  -0.01  -0.02    -0.03  -0.01  -0.05
  30   6    -0.05  -0.14   0.02     0.01   0.02   0.03     0.08   0.01  -0.01
  31   8    -0.03  -0.13   0.03     0.00   0.01   0.03     0.05   0.06  -0.01
  32   7    -0.11  -0.22  -0.01    -0.04  -0.07   0.02     0.39   0.45   0.11
  33   1    -0.01  -0.03   0.00    -0.02  -0.03   0.00     0.06   0.08   0.02
  34   1    -0.02  -0.04   0.00    -0.01  -0.02   0.00     0.04   0.02   0.01
  35   7    -0.05  -0.14   0.02     0.10   0.17   0.05    -0.15  -0.42  -0.11
  36   1    -0.02  -0.05   0.01     0.02   0.03   0.01    -0.01  -0.08  -0.03
  37   1    -0.01  -0.02   0.01     0.02   0.04   0.01    -0.03  -0.09  -0.03
  38   6    -0.04   0.09   0.01     0.05   0.08  -0.10     0.01   0.06   0.03
  39   8    -0.03   0.10  -0.02     0.27   0.28  -0.28     0.02   0.05   0.01
  40   7    -0.08   0.09   0.03    -0.11  -0.04  -0.00    -0.05   0.05   0.06
  41   1    -0.02   0.03   0.00     0.01   0.04  -0.04    -0.02   0.01   0.01
  42   1    -0.02   0.03   0.01    -0.05  -0.02   0.02    -0.01   0.02   0.02
  43   7    -0.04   0.09   0.02    -0.04  -0.01  -0.01     0.06   0.10   0.02
  44   1    -0.01   0.02   0.01    -0.05  -0.05   0.04     0.01   0.02   0.01
  45   1    -0.01   0.03   0.00     0.01   0.01  -0.01     0.01   0.03   0.01
  46   6    -0.07   0.09  -0.04     0.04  -0.02  -0.00    -0.04   0.07  -0.00
  47   8    -0.08   0.20  -0.06     0.09  -0.07   0.00    -0.10   0.23  -0.02
  48   7    -0.02   0.22  -0.09     0.03   0.01   0.04     0.01   0.05  -0.09
  49   1    -0.01   0.04  -0.02     0.01   0.00   0.01     0.00   0.02  -0.03
  50   1    -0.02   0.01  -0.01     0.00   0.02   0.01     0.01  -0.03  -0.01
  51   7    -0.15  -0.16   0.01     0.03  -0.00  -0.05    -0.04  -0.10   0.11
  52   1    -0.03  -0.02  -0.00     0.00   0.01  -0.02     0.01  -0.03   0.03
  53   1    -0.04  -0.03   0.00     0.01  -0.01  -0.02    -0.01   0.00   0.05
                     16                     17                     18
                        a                      a                      a 
 Frequencies --    97.9676               103.2626               109.6283
 Red. masses --    13.6565                13.1983                12.2448
 Frc consts  --     0.0000                 0.0000                 0.0000
 IR Inten    --     3.9208                12.4502                 6.3955
 Raman Activ --     0.0000                 0.0000                 0.0000
 Depolar     --     0.0000                 0.0000                 0.0000
 Atom AN      X      Y      Z        X      Y      Z        X      Y      Z
   1   8    -0.03   0.07   0.01    -0.00  -0.20   0.03    -0.02  -0.16   0.03
   2   6     0.00   0.02  -0.04     0.07   0.04   0.19     0.12  -0.03   0.07
   3   1    -0.00   0.01  -0.01     0.00   0.07   0.06     0.03   0.03   0.01
   4   1     0.01   0.01  -0.03     0.07  -0.00   0.10     0.06  -0.01   0.04
   5   6     0.01  -0.06  -0.04     0.02   0.04   0.12     0.15  -0.08   0.09
   6   1     0.00  -0.02  -0.02     0.01   0.00   0.02     0.05  -0.03   0.03
   7   1     0.01  -0.02  -0.02     0.00   0.02   0.05     0.05  -0.02   0.02
   8   7    -0.02  -0.10   0.01    -0.06   0.06   0.07     0.14  -0.11   0.14
   9   6    -0.03  -0.07   0.04    -0.06  -0.02  -0.01     0.02  -0.17   0.18
  10   1    -0.00  -0.03   0.00    -0.01  -0.02  -0.00     0.01  -0.07   0.08
  11   1    -0.02  -0.03   0.03    -0.03   0.00  -0.02    -0.00  -0.05   0.05
  12   1    -0.01  -0.00   0.02    -0.01  -0.02  -0.00    -0.02  -0.05   0.04
  13   6    -0.02  -0.14  -0.01    -0.08   0.07   0.06     0.23  -0.14   0.18
  14   1    -0.00  -0.04  -0.01    -0.02   0.01   0.01     0.07  -0.05   0.07
  15   1    -0.00  -0.04  -0.01    -0.02   0.03   0.02     0.09  -0.03   0.04
  16   1    -0.01  -0.05   0.00    -0.03   0.02   0.01     0.07  -0.05   0.06
  17   6    -0.04  -0.09   0.05    -0.11   0.14   0.08     0.10  -0.01   0.04
  18   1    -0.01  -0.02   0.02    -0.04   0.06   0.03     0.00   0.01  -0.00
  19   1    -0.02  -0.03   0.02    -0.05   0.03   0.03     0.02  -0.01   0.02
  20   1    -0.01  -0.03   0.01    -0.02   0.05   0.02     0.06   0.01  -0.00
  21   1    -0.01   0.03  -0.00     0.01  -0.07   0.02    -0.01  -0.04   0.01
  22   6     0.04   0.10  -0.02     0.08   0.03  -0.01     0.00  -0.03  -0.03
  23   8     0.25   0.13  -0.11     0.24   0.11  -0.10     0.01  -0.04  -0.04
  24   7    -0.04   0.13  -0.14     0.02   0.00  -0.03    -0.02  -0.05  -0.03
  25   1    -0.03  -0.01  -0.04     0.01  -0.01  -0.02     0.01   0.01  -0.02
  26   1    -0.08  -0.00   0.01    -0.03  -0.02   0.02     0.01  -0.00  -0.02
  27   7    -0.07   0.08   0.20    -0.00  -0.03   0.12    -0.01  -0.04  -0.02
  28   1    -0.04   0.05   0.06    -0.02  -0.01   0.04    -0.00  -0.01  -0.01
  29   1     0.02   0.05   0.06     0.03   0.02   0.03     0.00  -0.01  -0.01
  30   6     0.01  -0.11  -0.04    -0.01  -0.07  -0.02     0.02   0.10  -0.01
  31   8    -0.23  -0.54  -0.10    -0.07  -0.17  -0.03     0.08   0.27   0.01
  32   7     0.19   0.18   0.02     0.07   0.06   0.01    -0.02   0.02  -0.01
  33   1     0.04   0.03  -0.01     0.02   0.02  -0.00    -0.00   0.01  -0.00
  34   1     0.10   0.13   0.02     0.02   0.03   0.00    -0.03  -0.03  -0.01
  35   7     0.09   0.05   0.03    -0.05  -0.13  -0.02     0.01   0.05  -0.06
  36   1     0.06   0.10   0.01     0.00   0.00  -0.00    -0.02  -0.04  -0.02
  37   1     0.00  -0.04  -0.01    -0.01  -0.01  -0.00     0.00   0.00  -0.02
  38   6    -0.05   0.13   0.03     0.06  -0.06  -0.16    -0.14   0.16  -0.08
  39   8    -0.04   0.23   0.09     0.19  -0.15  -0.47    -0.11   0.17  -0.20
  40   7    -0.02   0.03   0.06    -0.25   0.08  -0.10    -0.29   0.23  -0.06
  41   1     0.02   0.03   0.02    -0.09   0.04  -0.09    -0.08   0.08  -0.05
  42   1     0.01   0.01  -0.01    -0.09   0.05   0.03    -0.07   0.09   0.00
  43   7    -0.12   0.14  -0.05     0.18  -0.12   0.10    -0.13   0.15   0.00
  44   1    -0.05   0.01  -0.01     0.03  -0.01   0.08    -0.05   0.03   0.03
  45   1    -0.05   0.04  -0.01     0.09  -0.05   0.02    -0.03   0.02   0.01
  46   6     0.04  -0.06   0.00    -0.04   0.07   0.02    -0.04  -0.07  -0.04
  47   8     0.05  -0.22   0.02    -0.05   0.24   0.00     0.03  -0.25  -0.03
  48   7     0.06   0.10   0.02    -0.02   0.03  -0.03    -0.10  -0.04   0.05
  49   1     0.00  -0.03   0.00    -0.01   0.00  -0.01    -0.02   0.01   0.02
  50   1     0.02   0.03   0.00    -0.01  -0.04   0.01    -0.03   0.05  -0.00
  51   7     0.02  -0.03  -0.05    -0.07  -0.08   0.09    -0.05   0.09  -0.19
  52   1     0.01   0.04  -0.02    -0.01  -0.02   0.03    -0.05   0.02  -0.05
  53   1     0.01  -0.02  -0.02    -0.01   0.01   0.03    -0.01  -0.02  -0.07
                     19                     20                     21
                        a                      a                      a 
 Frequencies --   116.7063               120.9699               139.8791
 Red. masses --    12.3378                13.3322                13.1010
 Frc consts  --     0.0000                 0.0000                 0.0000
 IR Inten    --    18.7934                36.1023                15.9683
 Raman Activ --     0.0000                 0.0000                 0.0000
 Depolar     --     0.0000                 0.0000                 0.0000
 Atom AN      X      Y      Z        X      Y      Z        X      Y      Z
   1   8     0.00  -0.05   0.00     0.03   0.02   0.02    -0.00   0.01   0.03
   2   6     0.04  -0.02   0.00    -0.11  -0.12  -0.06    -0.03  -0.03  -0.00
   3   1     0.01   0.01   0.00    -0.03  -0.08  -0.00    -0.00  -0.02  -0.00
   4   1     0.03  -0.01   0.00    -0.06  -0.03  -0.04    -0.02  -0.01  -0.01
   5   6     0.04  -0.06  -0.01    -0.14  -0.12  -0.09    -0.01  -0.02   0.01
   6   1     0.01  -0.02  -0.01    -0.04  -0.03  -0.03    -0.01  -0.01   0.01
   7   1     0.01  -0.02  -0.01    -0.05  -0.04  -0.03     0.00  -0.00   0.00
   8   7     0.02  -0.10   0.04    -0.15  -0.15  -0.07     0.00  -0.01   0.00
   9   6    -0.03  -0.11   0.07    -0.12  -0.10  -0.06     0.02  -0.00  -0.00
  10   1    -0.01  -0.04   0.03    -0.03  -0.03  -0.03     0.01  -0.00  -0.01
  11   1    -0.01  -0.03   0.02    -0.04  -0.03  -0.01    -0.00  -0.00   0.00
  12   1    -0.02  -0.03   0.01    -0.03  -0.02  -0.01     0.01   0.01   0.00
  13   6     0.06  -0.13   0.05    -0.16  -0.15  -0.09    -0.01   0.01   0.00
  14   1     0.02  -0.04   0.02    -0.05  -0.03  -0.03     0.00  -0.00   0.00
  15   1     0.03  -0.04   0.01    -0.05  -0.05  -0.03    -0.00   0.01   0.00
  16   1     0.02  -0.04   0.02    -0.04  -0.05  -0.02    -0.00   0.00  -0.00
  17   6    -0.00  -0.05   0.01    -0.14  -0.17  -0.03     0.02  -0.03   0.00
  18   1    -0.01  -0.01   0.00    -0.03  -0.06  -0.00     0.01  -0.02   0.00
  19   1    -0.01  -0.02   0.01    -0.04  -0.05  -0.01     0.01  -0.00  -0.00
  20   1     0.01  -0.01  -0.00    -0.05  -0.06  -0.00    -0.00  -0.01   0.01
  21   1     0.01  -0.00   0.00     0.03   0.02   0.01    -0.00   0.00   0.01
  22   6     0.05   0.04   0.09     0.14   0.12  -0.01     0.02  -0.11  -0.06
  23   8     0.01   0.16   0.07     0.40   0.34  -0.20     0.21  -0.41  -0.03
  24   7     0.09   0.01   0.20     0.02   0.00   0.06    -0.16  -0.06  -0.32
  25   1     0.03   0.01   0.06     0.03   0.03  -0.00    -0.04  -0.04  -0.11
  26   1     0.03  -0.02   0.06    -0.03  -0.05   0.06    -0.07   0.03  -0.10
  27   7     0.05  -0.05   0.03     0.01  -0.00   0.15     0.03   0.16   0.19
  28   1     0.02  -0.03   0.01    -0.03  -0.02   0.07    -0.04   0.11   0.04
  29   1     0.01   0.00  -0.01     0.05   0.05   0.02     0.05   0.02   0.12
  30   6    -0.02   0.06   0.03     0.07   0.09   0.06     0.03   0.10  -0.01
  31   8     0.11  -0.05   0.04     0.19   0.40   0.12    -0.04   0.22  -0.01
  32   7    -0.13   0.03  -0.09    -0.01  -0.05   0.07     0.10   0.09   0.09
  33   1    -0.01   0.02  -0.03     0.02   0.01   0.03     0.01   0.02   0.02
  34   1    -0.04   0.04  -0.02    -0.03  -0.06   0.01     0.03   0.00   0.02
  35   7    -0.05   0.18   0.18    -0.01  -0.07  -0.02     0.05   0.02  -0.10
  36   1    -0.03   0.07   0.05    -0.03  -0.09  -0.01     0.02  -0.00  -0.03
  37   1    -0.02   0.03   0.05     0.01   0.00   0.00     0.02   0.03  -0.02
  38   6    -0.11  -0.01  -0.18     0.04   0.02   0.05    -0.05  -0.05  -0.12
  39   8    -0.12   0.13  -0.09     0.05   0.03   0.05    -0.06   0.03  -0.03
  40   7     0.02  -0.14  -0.20     0.03  -0.01   0.07     0.07  -0.15  -0.14
  41   1     0.04  -0.03  -0.03     0.01   0.00   0.02     0.03  -0.05  -0.01
  42   1     0.00  -0.06  -0.08     0.01  -0.00   0.02     0.01  -0.07  -0.06
  43   7    -0.28  -0.05  -0.29     0.04   0.01   0.05    -0.15  -0.06  -0.21
  44   1    -0.07  -0.04  -0.10     0.01   0.00   0.01    -0.03  -0.03  -0.07
  45   1    -0.08   0.02  -0.09     0.01   0.01   0.01    -0.04   0.01  -0.07
  46   6     0.05   0.06  -0.00    -0.03   0.00  -0.02    -0.00   0.08   0.16
  47   8    -0.16   0.27  -0.04    -0.02  -0.01  -0.02     0.11   0.21   0.18
  48   7     0.18  -0.01  -0.20    -0.05  -0.03  -0.00    -0.07   0.00   0.25
  49   1     0.04  -0.01  -0.07    -0.00   0.03   0.00    -0.01   0.03   0.07
  50   1     0.07  -0.06  -0.04    -0.01   0.02  -0.01    -0.03  -0.01   0.07
  51   7     0.15  -0.06   0.28    -0.03   0.03  -0.04    -0.06  -0.00   0.14
  52   1     0.10  -0.03   0.08    -0.02   0.00  -0.01    -0.04  -0.03   0.04
  53   1     0.02   0.03   0.12    -0.01  -0.00  -0.02    -0.01   0.01   0.03
                     22                     23                     24
                        a                      a                      a 
 Frequencies --   143.7335               174.8127               182.2872
 Red. masses --    13.3421                12.6583                12.8838
 Frc consts  --     0.0000                 0.0000                 0.0000
 IR Inten    --    11.6896                 3.1448                14.3259
 Raman Activ --     0.0000                 0.0000                 0.0000
 Depolar     --     0.0000                 0.0000                 0.0000
 Atom AN      X      Y      Z        X      Y      Z        X      Y      Z
   1   8    -0.00  -0.02  -0.00    -0.02   0.03   0.03    -0.00   0.00  -0.00
   2   6     0.03   0.02   0.02    -0.01   0.00   0.00    -0.01  -0.00  -0.01
   3   1     0.01   0.02   0.00     0.00  -0.01  -0.01    -0.00  -0.00   0.00
   4   1     0.02   0.00   0.01    -0.01   0.00  -0.00    -0.00  -0.00  -0.00
   5   6     0.04   0.01   0.02     0.01   0.00   0.02    -0.02  -0.01  -0.01
   6   1     0.01   0.00   0.01     0.00  -0.01   0.02    -0.00  -0.00  -0.01
   7   1     0.01   0.00   0.01     0.01   0.01   0.01    -0.01  -0.00  -0.00
   8   7     0.04   0.01   0.02     0.01   0.02   0.00    -0.02  -0.02  -0.01
   9   6     0.01  -0.01   0.03     0.03   0.01  -0.02    -0.01  -0.01  -0.01
  10   1     0.00  -0.01   0.02     0.02  -0.01  -0.02    -0.01   0.00  -0.00
  11   1    -0.00  -0.00   0.01    -0.01  -0.00  -0.00    -0.00  -0.00  -0.00
  12   1    -0.00  -0.00   0.01     0.02   0.01   0.00    -0.00  -0.00  -0.00
  13   6     0.07   0.00   0.03    -0.01   0.03  -0.01    -0.03  -0.01  -0.01
  14   1     0.02  -0.00   0.01     0.00   0.00  -0.00    -0.01   0.00  -0.00
  15   1     0.02   0.00   0.01    -0.01   0.01   0.00    -0.01  -0.01  -0.00
  16   1     0.02  -0.00   0.01    -0.01   0.01  -0.01     0.00  -0.00   0.00
  17   6     0.03   0.04  -0.01     0.01   0.01   0.01    -0.02  -0.03   0.00
  18   1     0.00   0.01  -0.01     0.01  -0.00   0.00    -0.00  -0.01   0.00
  19   1     0.01   0.01  -0.00     0.00   0.01  -0.00    -0.01  -0.01   0.00
  20   1     0.02   0.02  -0.00    -0.00   0.01   0.01    -0.01  -0.01   0.00
  21   1    -0.01  -0.01  -0.00    -0.02  -0.00  -0.00     0.01   0.01   0.01
  22   6    -0.17   0.16  -0.14    -0.06  -0.04  -0.07     0.11  -0.06   0.07
  23   8    -0.15   0.29  -0.24     0.07  -0.25  -0.06     0.07  -0.04   0.10
  24   7    -0.16   0.12  -0.09    -0.18  -0.00  -0.26     0.13  -0.06   0.11
  25   1    -0.05   0.04  -0.01    -0.06  -0.02  -0.07     0.04  -0.02   0.03
  26   1    -0.05  -0.01  -0.00    -0.07   0.02  -0.07     0.04  -0.01   0.03
  27   7    -0.25   0.02  -0.17    -0.07   0.17   0.11     0.13  -0.08   0.06
  28   1    -0.06  -0.02  -0.03    -0.05   0.10   0.02     0.05  -0.01   0.00
  29   1    -0.06   0.03  -0.07     0.02   0.03   0.08     0.03  -0.01   0.01
  30   6     0.01  -0.15   0.16    -0.09   0.06   0.17    -0.28   0.08  -0.02
  31   8    -0.02  -0.03   0.22    -0.01   0.10   0.22    -0.18   0.01  -0.02
  32   7     0.00  -0.21   0.23    -0.10   0.07   0.18    -0.23   0.28  -0.10
  33   1    -0.01  -0.08   0.06    -0.02   0.01   0.04    -0.03   0.10  -0.04
  34   1    -0.02  -0.09   0.06    -0.05   0.00   0.04    -0.09   0.07  -0.03
  35   7     0.02  -0.23   0.11    -0.16  -0.01   0.23    -0.42  -0.07   0.02
  36   1     0.01  -0.09   0.03    -0.04   0.01   0.06    -0.11  -0.00   0.01
  37   1     0.01  -0.03   0.03    -0.05  -0.02   0.05    -0.11  -0.03   0.03
  38   6    -0.03  -0.01  -0.07     0.02   0.01   0.04     0.01   0.00  -0.00
  39   8    -0.04   0.04  -0.02     0.02  -0.04  -0.01     0.01   0.02   0.01
  40   7     0.02  -0.07  -0.07    -0.05   0.09   0.05     0.01  -0.01   0.01
  41   1     0.01  -0.03  -0.00    -0.03   0.02  -0.00    -0.00  -0.01   0.01
  42   1     0.00  -0.04  -0.03    -0.01   0.04   0.03    -0.00  -0.01   0.00
  43   7    -0.09  -0.03  -0.11     0.08   0.02   0.10     0.00   0.00  -0.01
  44   1    -0.01   0.00  -0.05     0.02   0.01   0.04     0.01   0.01  -0.01
  45   1    -0.01   0.02  -0.04     0.02  -0.01   0.03     0.02   0.01  -0.01
  46   6     0.16   0.03   0.03     0.12  -0.08  -0.18     0.20   0.00  -0.01
  47   8     0.35   0.17   0.02    -0.11  -0.10  -0.22     0.44   0.09  -0.03
  48   7     0.06  -0.02   0.14     0.25  -0.05  -0.37     0.07  -0.02   0.14
  49   1     0.03   0.00   0.06     0.06  -0.02  -0.11     0.03  -0.00   0.06
  50   1    -0.02  -0.04   0.05     0.08  -0.04  -0.09    -0.02  -0.03   0.04
  51   7     0.06  -0.08  -0.10     0.25  -0.05   0.01     0.06  -0.07  -0.27
  52   1    -0.02  -0.04  -0.02     0.12   0.00  -0.00    -0.06  -0.05  -0.07
  53   1     0.05   0.00  -0.05     0.04  -0.01   0.04     0.06  -0.02  -0.12
                     25                     26                     27
                        a                      a                      a 
 Frequencies --   200.8072               222.7441               250.8321
 Red. masses --     9.5159                12.3886                 2.9571
 Frc consts  --     0.0000                 0.0000                 0.0000
 IR Inten    --     4.6495                99.4251                76.0851
 Raman Activ --     0.0000                 0.0000                 0.0000
 Depolar     --     0.0000                 0.0000                 0.0000
 Atom AN      X      Y      Z        X      Y      Z        X      Y      Z
   1   8     0.28  -0.28  -0.35    -0.04   0.02   0.03     0.12   0.02  -0.05
   2   6     0.07   0.07   0.05    -0.01  -0.00  -0.00    -0.01  -0.03  -0.04
   3   1    -0.03   0.08   0.08    -0.00  -0.00  -0.00     0.01  -0.04  -0.02
   4   1     0.09  -0.01   0.09    -0.00   0.00  -0.01    -0.04  -0.01  -0.01
   5   6    -0.24   0.15  -0.23     0.01  -0.01   0.01     0.01   0.03  -0.00
   6   1    -0.07   0.12  -0.15     0.00  -0.01   0.00    -0.00   0.00   0.01
   7   1    -0.16  -0.03  -0.08     0.01   0.00   0.00     0.01   0.01  -0.00
   8   7    -0.11   0.07   0.03    -0.01  -0.01  -0.01    -0.01   0.02   0.02
   9   6    -0.18   0.22   0.26     0.01  -0.01  -0.03    -0.02   0.02   0.03
  10   1    -0.13   0.14   0.20     0.00  -0.00  -0.01     0.01  -0.01  -0.02
  11   1     0.09   0.11   0.06     0.00  -0.00  -0.01    -0.04  -0.01   0.03
  12   1    -0.13  -0.03   0.01     0.00  -0.01  -0.01     0.01   0.04   0.03
  13   6     0.12  -0.13   0.10    -0.02   0.02  -0.01     0.01  -0.04   0.01
  14   1     0.05  -0.08   0.05    -0.01   0.01   0.00    -0.00  -0.00  -0.00
  15   1     0.09  -0.02  -0.01    -0.01   0.01   0.00     0.00  -0.03  -0.01
  16   1     0.01  -0.06   0.06    -0.00   0.01  -0.01     0.01  -0.02   0.02
  17   6    -0.04  -0.00  -0.04    -0.00  -0.01  -0.01    -0.03   0.05   0.03
  18   1    -0.08   0.09  -0.02     0.00  -0.01  -0.00     0.01  -0.02   0.01
  19   1     0.02  -0.06   0.09    -0.00   0.00  -0.01    -0.02   0.03  -0.02
  20   1     0.04  -0.04  -0.12    -0.00  -0.00   0.00    -0.02   0.03   0.04
  21   1     0.19  -0.07  -0.01     0.02   0.04   0.02    -0.12  -0.15  -0.08
  22   6     0.00  -0.02  -0.01    -0.07   0.02  -0.02    -0.01  -0.00  -0.00
  23   8     0.03  -0.05  -0.01    -0.03  -0.06  -0.00    -0.01  -0.02   0.00
  24   7    -0.03  -0.02  -0.05    -0.12   0.01  -0.07    -0.02  -0.00  -0.01
  25   1    -0.01  -0.01  -0.02    -0.02   0.01  -0.05     0.00   0.00  -0.01
  26   1    -0.01   0.01  -0.02    -0.02   0.03  -0.03    -0.00   0.00  -0.01
  27   7    -0.00   0.02   0.03    -0.07   0.12   0.08    -0.00   0.03   0.01
  28   1    -0.01   0.02   0.00    -0.03   0.07   0.01    -0.02   0.00   0.01
  29   1     0.01   0.00   0.02     0.01   0.04   0.04    -0.00  -0.00   0.02
  30   6     0.01  -0.01   0.01     0.18  -0.07   0.01     0.03   0.00  -0.00
  31   8     0.02  -0.01   0.02     0.55  -0.18   0.02     0.10   0.01   0.00
  32   7     0.00   0.00  -0.00     0.00   0.07  -0.41    -0.01   0.01  -0.08
  33   1     0.00  -0.00  -0.01     0.06   0.03  -0.17     0.01   0.01  -0.03
  34   1    -0.01  -0.00  -0.00    -0.10   0.03  -0.12    -0.02   0.01  -0.02
  35   7    -0.01  -0.01   0.03    -0.09  -0.08   0.39    -0.02  -0.01   0.06
  36   1    -0.00   0.00   0.01    -0.09   0.03   0.10    -0.03  -0.01   0.01
  37   1    -0.00  -0.00   0.01    -0.00  -0.05   0.17    -0.00  -0.02   0.03
  38   6     0.00  -0.00   0.04     0.01  -0.00   0.00    -0.00  -0.01   0.00
  39   8    -0.01  -0.01   0.07     0.01  -0.01  -0.00    -0.01  -0.01   0.01
  40   7     0.05  -0.01   0.03     0.00   0.01   0.00    -0.02  -0.01   0.00
  41   1     0.01  -0.02   0.02    -0.02  -0.01   0.01     0.04   0.04  -0.02
  42   1     0.01  -0.02   0.01    -0.02  -0.01   0.01     0.06   0.05  -0.03
  43   7     0.01   0.01   0.02     0.00  -0.01   0.02     0.02   0.01  -0.01
  44   1     0.01   0.01  -0.01     0.02   0.02  -0.00    -0.04  -0.05   0.04
  45   1    -0.00   0.01   0.00     0.02   0.01  -0.00    -0.02  -0.03   0.02
  46   6     0.00  -0.01  -0.01    -0.06   0.02   0.01     0.01   0.03   0.01
  47   8    -0.00  -0.00  -0.01     0.03   0.04   0.02     0.05  -0.03   0.03
  48   7     0.00  -0.01  -0.01    -0.10   0.02   0.08    -0.03  -0.00   0.00
  49   1     0.00   0.00  -0.00    -0.02   0.02   0.04    -0.02  -0.08   0.03
  50   1     0.00   0.00  -0.00    -0.03   0.03   0.02    -0.08  -0.23   0.06
  51   7     0.01   0.01  -0.00    -0.10   0.08  -0.13    -0.17  -0.24   0.02
  52   1    -0.01  -0.02   0.00    -0.12  -0.11  -0.01     0.22   0.66  -0.15
  53   1    -0.00  -0.01   0.00    -0.05  -0.07  -0.05     0.18   0.39  -0.09
                     28                     29                     30
                        a                      a                      a 
 Frequencies --   257.2250               264.4016               284.1878
 Red. masses --     2.4527                 5.3112                 2.8703
 Frc consts  --     0.0000                 0.0000                 0.0000
 IR Inten    --    83.7276                83.4291               152.0701
 Raman Activ --     0.0000                 0.0000                 0.0000
 Depolar     --     0.0000                 0.0000                 0.0000
 Atom AN      X      Y      Z        X      Y      Z        X      Y      Z
   1   8    -0.04  -0.01   0.02     0.31  -0.01  -0.17     0.15   0.20   0.04
   2   6     0.00  -0.00   0.01    -0.11  -0.19  -0.17     0.06   0.14   0.06
   3   1    -0.00   0.01   0.00     0.02  -0.17  -0.07     0.00   0.06   0.03
   4   1     0.01   0.00  -0.00    -0.17  -0.07  -0.04     0.05   0.05   0.02
   5   6    -0.00  -0.01  -0.00     0.02   0.09   0.01    -0.02  -0.02   0.00
   6   1    -0.00  -0.00  -0.00    -0.01   0.01   0.06     0.00  -0.01  -0.02
   7   1    -0.00  -0.01  -0.00     0.04   0.04  -0.00    -0.01  -0.01  -0.00
   8   7     0.01  -0.01  -0.00    -0.00   0.07   0.07    -0.05  -0.06   0.02
   9   6     0.01  -0.01  -0.00    -0.06   0.06   0.12    -0.00  -0.07  -0.04
  10   1    -0.00   0.00   0.01     0.08  -0.08  -0.15    -0.06   0.04   0.10
  11   1     0.01   0.00  -0.01    -0.22  -0.09   0.15     0.12   0.05  -0.09
  12   1    -0.00  -0.01  -0.01     0.07   0.23   0.13    -0.04  -0.15  -0.06
  13   6    -0.00   0.00  -0.01     0.04  -0.14   0.03    -0.06   0.07   0.04
  14   1     0.01  -0.01  -0.00    -0.03   0.04  -0.01     0.00  -0.02   0.03
  15   1     0.00   0.01   0.01    -0.01  -0.13  -0.06    -0.01   0.07   0.05
  16   1    -0.01   0.00  -0.01     0.09  -0.07   0.10    -0.05   0.04  -0.04
  17   6     0.01  -0.00   0.00    -0.12   0.21   0.11     0.03  -0.14  -0.05
  18   1    -0.00   0.01   0.00     0.08  -0.11   0.03    -0.05   0.03  -0.02
  19   1     0.00  -0.01   0.01    -0.09   0.18  -0.15     0.05  -0.09   0.07
  20   1     0.01   0.00  -0.00    -0.11   0.14   0.21     0.04  -0.08  -0.10
  21   1     0.04   0.05   0.03    -0.16  -0.26  -0.15    -0.57  -0.51  -0.28
  22   6     0.01   0.00  -0.00    -0.01  -0.00   0.01    -0.01  -0.01   0.01
  23   8     0.01   0.01  -0.00    -0.01  -0.00   0.01    -0.01  -0.00   0.01
  24   7     0.00  -0.00   0.01     0.01   0.01   0.00     0.02   0.02  -0.02
  25   1     0.00   0.00  -0.00    -0.01  -0.01   0.01    -0.02  -0.03   0.02
  26   1     0.00   0.00  -0.00    -0.01  -0.02   0.02    -0.07  -0.09   0.07
  27   7    -0.00  -0.01   0.01     0.00   0.00  -0.00    -0.00  -0.02   0.02
  28   1     0.01   0.01  -0.01     0.01   0.01  -0.01     0.06   0.08  -0.07
  29   1     0.00   0.01  -0.01     0.00   0.01  -0.01     0.04   0.06  -0.05
  30   6    -0.01  -0.00  -0.00    -0.00  -0.01  -0.00     0.01   0.01   0.00
  31   8    -0.02  -0.00  -0.00    -0.01  -0.02  -0.00     0.01   0.01  -0.00
  32   7     0.01   0.02   0.01     0.00   0.00  -0.00    -0.00  -0.01  -0.01
  33   1    -0.01  -0.01  -0.00     0.00   0.00   0.00     0.01   0.01   0.00
  34   1    -0.02  -0.03  -0.00     0.00   0.00   0.00     0.02   0.02   0.00
  35   7     0.01   0.02  -0.01    -0.00  -0.00   0.00    -0.00  -0.01  -0.00
  36   1    -0.00  -0.01  -0.00     0.00   0.01   0.00    -0.00  -0.01  -0.00
  37   1     0.01   0.01   0.00     0.00   0.00   0.00     0.00  -0.00   0.00
  38   6    -0.02  -0.00  -0.00     0.01   0.01  -0.01     0.00   0.01  -0.00
  39   8     0.03   0.03  -0.04     0.01   0.01  -0.02     0.01   0.01  -0.01
  40   7     0.22   0.20  -0.08     0.01   0.02  -0.01     0.01   0.00  -0.00
  41   1    -0.33  -0.34   0.17    -0.04  -0.04   0.02    -0.02  -0.02   0.01
  42   1    -0.52  -0.44   0.27    -0.06  -0.05   0.03    -0.04  -0.03   0.02
  43   7    -0.03  -0.01   0.01    -0.01  -0.01   0.01    -0.01  -0.01   0.00
  44   1     0.14   0.16  -0.11     0.03   0.03  -0.02     0.02   0.03  -0.02
  45   1     0.06   0.07  -0.05     0.02   0.02  -0.01     0.01   0.01  -0.01
  46   6    -0.01  -0.01   0.00    -0.00  -0.01   0.00    -0.00  -0.01   0.00
  47   8    -0.02  -0.05   0.01    -0.01   0.00  -0.00    -0.00  -0.00   0.00
  48   7    -0.00   0.00  -0.01     0.00   0.01   0.01    -0.00   0.01   0.01
  49   1    -0.00  -0.01  -0.00     0.00   0.01  -0.00     0.00   0.00   0.00
  50   1    -0.01  -0.03   0.01     0.02   0.05  -0.01    -0.00   0.00   0.00
  51   7    -0.02  -0.04   0.02     0.04   0.07  -0.01     0.02   0.04  -0.01
  52   1     0.05   0.13  -0.03    -0.07  -0.18   0.04    -0.03  -0.09   0.02
  53   1     0.03   0.06  -0.01    -0.05  -0.11   0.02    -0.02  -0.05   0.01
                     31                     32                     33
                        a                      a                      a 
 Frequencies --   286.4459               296.1253               310.2406
 Red. masses --     6.2948                 2.3364                 6.8389
 Frc consts  --     0.0000                 0.0000                 0.0000
 IR Inten    --     3.8551               140.8829                11.1152
 Raman Activ --     0.0000                 0.0000                 0.0000
 Depolar     --     0.0000                 0.0000                 0.0000
 Atom AN      X      Y      Z        X      Y      Z        X      Y      Z
   1   8     0.15   0.10  -0.29    -0.05  -0.05   0.02    -0.08  -0.03   0.26
   2   6    -0.19  -0.06  -0.22     0.02  -0.01   0.02    -0.04  -0.25  -0.02
   3   1    -0.01  -0.11  -0.10     0.00   0.01   0.01     0.03  -0.14  -0.04
   4   1    -0.17  -0.02  -0.08     0.02  -0.00   0.01    -0.10  -0.07  -0.04
   5   6     0.04   0.05   0.06    -0.00  -0.00  -0.01     0.07  -0.01   0.06
   6   1    -0.01  -0.01   0.10     0.00   0.00  -0.01     0.01   0.00   0.04
   7   1     0.08   0.03  -0.01    -0.01  -0.00   0.00     0.01   0.02   0.04
   8   7     0.03   0.00   0.15     0.01   0.02  -0.02     0.09   0.08  -0.08
   9   6     0.05  -0.23  -0.11    -0.00   0.04   0.02     0.09   0.23   0.06
  10   1    -0.09   0.02   0.23     0.02  -0.01  -0.04    -0.05   0.16   0.13
  11   1     0.23   0.10  -0.24    -0.05  -0.02   0.04     0.18   0.12  -0.00
  12   1    -0.08  -0.38  -0.15     0.02   0.07   0.03    -0.04  -0.03  -0.04
  13   6    -0.01   0.09   0.15     0.01  -0.01  -0.03     0.02  -0.33  -0.24
  14   1     0.04  -0.05   0.06    -0.01   0.02  -0.01     0.16  -0.29  -0.13
  15   1     0.02   0.10   0.10    -0.01  -0.02  -0.02     0.08   0.06   0.00
  16   1    -0.07   0.04  -0.03     0.02  -0.01   0.01    -0.25  -0.15  -0.13
  17   6    -0.07   0.08   0.29     0.01   0.02  -0.03    -0.07   0.29  -0.02
  18   1     0.04  -0.02   0.10     0.01  -0.00  -0.01    -0.09   0.19  -0.01
  19   1    -0.06   0.05   0.03     0.00   0.01  -0.01    -0.07   0.00   0.08
  20   1    -0.06   0.05   0.16     0.00   0.01  -0.00     0.07   0.10  -0.09
  21   1     0.17   0.09   0.00     0.10   0.09   0.06    -0.12  -0.03   0.00
  22   6     0.00   0.01  -0.01    -0.01  -0.00   0.00     0.01   0.01  -0.00
  23   8     0.00   0.01  -0.01    -0.05  -0.01   0.03     0.01   0.01  -0.00
  24   7    -0.01  -0.00  -0.01     0.03   0.04  -0.05    -0.00  -0.01   0.02
  25   1    -0.01  -0.00   0.00    -0.07  -0.07   0.05     0.01   0.01  -0.00
  26   1    -0.02  -0.02   0.01    -0.20  -0.24   0.20     0.01   0.01  -0.01
  27   7    -0.02  -0.04   0.02    -0.09  -0.20   0.17    -0.01  -0.02   0.02
  28   1     0.04   0.06  -0.06     0.34   0.47  -0.43     0.01   0.01  -0.01
  29   1     0.02   0.04  -0.04     0.17   0.32  -0.24     0.01   0.01  -0.01
  30   6    -0.00  -0.00  -0.00     0.01   0.01  -0.00    -0.01  -0.01  -0.01
  31   8    -0.01  -0.01  -0.00     0.02   0.03  -0.00    -0.01  -0.00  -0.01
  32   7     0.01   0.00   0.00    -0.00  -0.01  -0.01     0.04   0.06   0.01
  33   1    -0.01  -0.01  -0.00     0.01   0.01   0.00    -0.05  -0.06  -0.01
  34   1    -0.01  -0.01  -0.00     0.00  -0.00  -0.00    -0.08  -0.12  -0.02
  35   7     0.00  -0.00  -0.00     0.02  -0.01  -0.02    -0.01   0.00   0.01
  36   1     0.00   0.01  -0.00     0.00  -0.01  -0.01     0.02   0.05   0.00
  37   1     0.00   0.00  -0.00     0.00   0.00  -0.01     0.00   0.02   0.00
  38   6    -0.00  -0.01  -0.01    -0.00  -0.00   0.00    -0.01  -0.00  -0.00
  39   8    -0.00  -0.01  -0.01    -0.00  -0.00   0.00    -0.01  -0.01   0.00
  40   7    -0.01   0.00  -0.01    -0.00  -0.00   0.00    -0.01  -0.00  -0.00
  41   1    -0.00   0.01  -0.01     0.01   0.01  -0.00     0.00   0.01  -0.01
  42   1     0.01   0.01  -0.00     0.02   0.01  -0.01     0.01   0.01  -0.01
  43   7     0.01  -0.00  -0.00     0.01   0.00  -0.00    -0.00  -0.00  -0.00
  44   1    -0.00  -0.01   0.01    -0.01  -0.02   0.01     0.00   0.00  -0.00
  45   1     0.00  -0.01   0.00    -0.01  -0.01   0.00     0.00   0.00  -0.00
  46   6     0.00   0.00  -0.00    -0.00   0.00  -0.00     0.00  -0.00   0.00
  47   8    -0.00  -0.00  -0.00    -0.00   0.00  -0.00    -0.00  -0.00   0.00
  48   7     0.00   0.00  -0.00    -0.00  -0.01  -0.00     0.00   0.01   0.00
  49   1    -0.00  -0.00  -0.00    -0.00   0.00  -0.00     0.00  -0.00   0.00
  50   1     0.00   0.00  -0.00     0.00   0.00  -0.00     0.00   0.00   0.00
  51   7    -0.00  -0.00   0.00    -0.01  -0.02   0.01     0.00   0.01  -0.00
  52   1     0.00   0.00  -0.00     0.02   0.04  -0.01    -0.01  -0.02   0.00
  53   1     0.00   0.00   0.00     0.01   0.02  -0.00    -0.00  -0.01   0.00
                     34                     35                     36
                        a                      a                      a 
 Frequencies --   338.7810               344.4459               366.4321
 Red. masses --     2.7690                 2.3720                 3.2104
 Frc consts  --     0.0000                 0.0000                 0.0000
 IR Inten    --     9.4605                38.4244                 2.6071
 Raman Activ --     0.0000                 0.0000                 0.0000
 Depolar     --     0.0000                 0.0000                 0.0000
 Atom AN      X      Y      Z        X      Y      Z        X      Y      Z
   1   8     0.13   0.03  -0.16    -0.02   0.01  -0.00     0.01  -0.04  -0.04
   2   6    -0.12  -0.02  -0.08     0.06   0.10   0.06     0.11   0.01  -0.05
   3   1    -0.02  -0.04  -0.02     0.00   0.07   0.03     0.04  -0.00  -0.04
   4   1    -0.08  -0.01  -0.02     0.07   0.03   0.03     0.02  -0.00  -0.01
   5   6    -0.03   0.03   0.04    -0.01   0.00  -0.02     0.11   0.03  -0.02
   6   1    -0.02  -0.01   0.05     0.00   0.00  -0.02     0.05  -0.01  -0.02
   7   1     0.01   0.01   0.00    -0.02  -0.01  -0.00     0.03   0.03   0.02
   8   7     0.01   0.02   0.06    -0.02  -0.02  -0.01    -0.00   0.02  -0.02
   9   6    -0.00  -0.13  -0.06    -0.02   0.02   0.02    -0.21   0.04   0.20
  10   1     0.13  -0.18  -0.22    -0.03   0.03   0.05    -0.03  -0.04   0.05
  11   1    -0.25  -0.15   0.06     0.04   0.03  -0.01    -0.11  -0.04   0.13
  12   1     0.11   0.17   0.09    -0.03  -0.03  -0.01    -0.10   0.11   0.06
  13   6    -0.01   0.13   0.08    -0.01   0.03   0.01    -0.10   0.13  -0.05
  14   1     0.09  -0.12   0.04    -0.01   0.02   0.01     0.18  -0.30  -0.01
  15   1     0.05   0.19   0.12    -0.02  -0.02  -0.01     0.07   0.37   0.21
  16   1    -0.16   0.06  -0.10     0.03   0.01   0.01    -0.39   0.07  -0.27
  17   6     0.04  -0.02   0.08     0.03  -0.09  -0.07     0.12  -0.19  -0.01
  18   1    -0.16   0.28   0.04     0.13  -0.22  -0.03     0.17  -0.26  -0.01
  19   1     0.05  -0.21   0.32     0.02   0.11  -0.21     0.07   0.08  -0.17
  20   1     0.16  -0.11  -0.27    -0.10   0.02   0.16    -0.10  -0.05   0.16
  21   1     0.07  -0.02  -0.01    -0.03  -0.02  -0.01     0.02   0.02  -0.01
  22   6     0.01   0.02  -0.00     0.05   0.03  -0.01    -0.01   0.00   0.00
  23   8     0.01   0.02   0.00     0.04   0.02  -0.01    -0.01   0.01   0.00
  24   7     0.00  -0.01   0.03    -0.02  -0.05   0.04     0.00   0.01   0.01
  25   1     0.02   0.01  -0.00     0.03   0.02  -0.02    -0.00   0.00   0.00
  26   1     0.04   0.04  -0.03     0.08   0.09  -0.08    -0.00  -0.01   0.01
  27   7    -0.01  -0.02   0.03    -0.02  -0.04   0.07    -0.00   0.00  -0.01
  28   1     0.01   0.02  -0.01     0.02   0.04  -0.03    -0.00  -0.01   0.00
  29   1     0.01   0.01  -0.01     0.02   0.03  -0.01    -0.01  -0.00  -0.00
  30   6    -0.02  -0.03  -0.01    -0.05  -0.07  -0.03     0.01   0.02   0.00
  31   8    -0.02  -0.01  -0.01    -0.05  -0.02  -0.02     0.01   0.01   0.00
  32   7     0.06   0.07   0.01     0.14   0.15   0.02    -0.02  -0.02  -0.00
  33   1    -0.07  -0.07  -0.01    -0.13  -0.15  -0.01     0.01   0.00  -0.01
  34   1    -0.17  -0.25  -0.04    -0.42  -0.62  -0.09     0.09   0.14   0.02
  35   7     0.00   0.01   0.02     0.02   0.03   0.03    -0.01  -0.01  -0.00
  36   1     0.04   0.10   0.01     0.10   0.23   0.01    -0.02  -0.04  -0.00
  37   1     0.01   0.03   0.00     0.02   0.07  -0.00    -0.00  -0.01   0.00
  38   6    -0.01  -0.00   0.00    -0.01   0.00  -0.01     0.00  -0.01  -0.01
  39   8    -0.02  -0.01   0.01    -0.01  -0.01   0.00     0.00  -0.01  -0.01
  40   7     0.00  -0.00  -0.00    -0.01  -0.01  -0.00    -0.01   0.01  -0.01
  41   1     0.00   0.00  -0.00     0.01   0.00  -0.00    -0.01  -0.00  -0.00
  42   1     0.01   0.01  -0.01     0.03   0.02  -0.02    -0.00   0.00   0.00
  43   7    -0.00   0.00  -0.01    -0.00  -0.00  -0.00     0.02  -0.01   0.00
  44   1    -0.00  -0.00   0.00    -0.00   0.00   0.00    -0.00  -0.01   0.01
  45   1    -0.00  -0.00  -0.00     0.01   0.00  -0.00     0.01  -0.01   0.00
  46   6    -0.00  -0.00   0.00    -0.00  -0.01  -0.00     0.00   0.00   0.00
  47   8    -0.00  -0.01   0.00    -0.01  -0.02  -0.00     0.00   0.00   0.00
  48   7    -0.00  -0.00   0.00    -0.00  -0.00  -0.00     0.00  -0.00  -0.00
  49   1     0.00   0.00   0.00     0.00   0.00   0.00     0.00   0.00  -0.00
  50   1     0.00   0.00  -0.00    -0.00  -0.01   0.00     0.00   0.00  -0.00
  51   7    -0.00   0.00  -0.00     0.00   0.00   0.01    -0.00  -0.00  -0.00
  52   1    -0.00   0.00  -0.00     0.01   0.01  -0.00    -0.00   0.00  -0.00
  53   1    -0.00  -0.00  -0.00     0.00   0.00   0.00     0.00   0.00  -0.00
                     37                     38                     39
                        a                      a                      a 
 Frequencies --   377.0105               402.6543               408.1309
 Red. masses --     6.3894                 3.0926                 3.5548
 Frc consts  --     0.0000                 0.0000                 0.0000
 IR Inten    --     0.6958               194.6287               208.0464
 Raman Activ --     0.0000                 0.0000                 0.0000
 Depolar     --     0.0000                 0.0000                 0.0000
 Atom AN      X      Y      Z        X      Y      Z        X      Y      Z
   1   8     0.08  -0.03  -0.08     0.01   0.01   0.00     0.03   0.04  -0.04
   2   6     0.09  -0.09  -0.14    -0.01   0.01   0.02    -0.04   0.05   0.03
   3   1     0.08  -0.09  -0.12    -0.01   0.00   0.01    -0.02   0.03   0.02
   4   1    -0.08  -0.04  -0.04     0.00   0.00   0.01     0.01   0.02   0.01
   5   6     0.33   0.04   0.17    -0.02  -0.00   0.00    -0.04  -0.02   0.03
   6   1     0.11  -0.11   0.14    -0.01   0.00   0.00    -0.01  -0.01   0.02
   7   1     0.21   0.11   0.08    -0.00  -0.00  -0.00     0.00  -0.01  -0.00
   8   7    -0.02   0.04   0.04    -0.01  -0.00  -0.00    -0.02  -0.04   0.05
   9   6    -0.23   0.07   0.27     0.02   0.00  -0.02     0.10   0.01  -0.02
  10   1    -0.11   0.05   0.19     0.00   0.00  -0.01     0.03   0.02  -0.04
  11   1     0.03   0.04   0.09     0.00   0.00  -0.01     0.02   0.00  -0.00
  12   1    -0.17  -0.01   0.01     0.02  -0.00  -0.00     0.06   0.01   0.02
  13   6    -0.32   0.09  -0.12     0.01  -0.02   0.01    -0.03  -0.05   0.04
  14   1    -0.19   0.22  -0.11     0.01  -0.01   0.01     0.01  -0.03   0.01
  15   1    -0.23  -0.15  -0.07     0.01  -0.00  -0.00     0.00   0.00   0.02
  16   1     0.07   0.04   0.04    -0.00  -0.01   0.00    -0.03  -0.02   0.00
  17   6     0.10  -0.09  -0.12    -0.01   0.00  -0.01    -0.02   0.02  -0.09
  18   1    -0.08   0.05  -0.07     0.00  -0.01  -0.00    -0.03  -0.02  -0.05
  19   1     0.12  -0.08   0.09    -0.01   0.01  -0.01    -0.00   0.02  -0.05
  20   1     0.09  -0.09  -0.18    -0.00   0.01   0.01     0.01   0.03  -0.01
  21   1     0.04   0.03  -0.01    -0.03  -0.03  -0.01    -0.01  -0.04  -0.01
  22   6     0.02   0.01  -0.01     0.01   0.02  -0.01     0.08   0.10  -0.07
  23   8     0.01   0.00  -0.01     0.01   0.01  -0.01     0.04   0.04  -0.02
  24   7    -0.03  -0.02   0.01    -0.02  -0.02   0.02    -0.16  -0.16   0.13
  25   1     0.01   0.01  -0.01     0.01   0.01  -0.01     0.04   0.03  -0.06
  26   1     0.04   0.06  -0.05     0.06   0.08  -0.07     0.38   0.50  -0.40
  27   7    -0.01  -0.03   0.02    -0.02  -0.03   0.02    -0.11  -0.17   0.13
  28   1     0.02   0.02  -0.02     0.02   0.02  -0.02     0.15   0.17  -0.18
  29   1     0.00   0.00  -0.01     0.01   0.01  -0.01     0.02   0.07  -0.07
  30   6    -0.01  -0.01  -0.00    -0.01  -0.01   0.01    -0.01   0.00   0.00
  31   8    -0.01  -0.01  -0.00     0.01  -0.03   0.02    -0.00  -0.01  -0.00
  32   7     0.00   0.00   0.00    -0.00   0.02   0.01    -0.01  -0.03   0.03
  33   1    -0.00  -0.00   0.00    -0.00  -0.00  -0.01    -0.01  -0.03  -0.00
  34   1    -0.02  -0.03  -0.00    -0.00   0.01   0.00     0.13   0.17   0.03
  35   7     0.00   0.00   0.00     0.02   0.03  -0.00     0.00   0.03  -0.01
  36   1     0.01   0.02   0.00    -0.03  -0.07  -0.00    -0.06  -0.11  -0.00
  37   1    -0.00   0.00  -0.00     0.00   0.00  -0.01     0.00  -0.01   0.01
  38   6     0.00  -0.01   0.00    -0.08  -0.11   0.08     0.01   0.01  -0.01
  39   8     0.01   0.01   0.00    -0.02  -0.05   0.02     0.00   0.00  -0.00
  40   7     0.00   0.01  -0.01     0.14   0.15  -0.07    -0.02  -0.02   0.01
  41   1    -0.01   0.01  -0.01    -0.07  -0.06   0.02     0.01   0.01  -0.00
  42   1    -0.02  -0.01   0.01    -0.12  -0.08   0.08     0.02   0.01  -0.01
  43   7     0.00   0.01  -0.02     0.13   0.18  -0.14    -0.01  -0.02   0.02
  44   1    -0.02  -0.02   0.01    -0.52  -0.55   0.40     0.07   0.07  -0.05
  45   1    -0.01  -0.01   0.00    -0.05  -0.07   0.03     0.00   0.01  -0.00
  46   6     0.00   0.00  -0.00     0.02   0.04  -0.01    -0.01  -0.03   0.00
  47   8    -0.00  -0.00  -0.00     0.01   0.04  -0.01     0.00  -0.03  -0.00
  48   7     0.00   0.00  -0.00    -0.00  -0.04   0.02     0.01   0.07  -0.03
  49   1    -0.00  -0.00   0.00    -0.00   0.01  -0.01     0.00  -0.02   0.02
  50   1    -0.00   0.00  -0.00     0.05   0.13  -0.03    -0.07  -0.20   0.05
  51   7     0.00  -0.00   0.00    -0.01  -0.03  -0.03     0.02   0.05   0.01
  52   1     0.00  -0.00   0.00    -0.03  -0.07   0.01    -0.01  -0.03   0.01
  53   1    -0.00  -0.00   0.00     0.02   0.04  -0.01    -0.01  -0.02   0.01
                     40                     41                     42
                        a                      a                      a 
 Frequencies --   416.9351               436.7484               455.8621
 Red. masses --     8.3396                 3.0906                 8.0827
 Frc consts  --     0.0000                 0.0000                 0.0000
 IR Inten    --     7.3889               323.7462                37.7690
 Raman Activ --     0.0000                 0.0000                 0.0000
 Depolar     --     0.0000                 0.0000                 0.0000
 Atom AN      X      Y      Z        X      Y      Z        X      Y      Z
   1   8     0.07   0.06  -0.22    -0.01  -0.01  -0.01    -0.01   0.00   0.03
   2   6    -0.11   0.16   0.04     0.01  -0.01  -0.02     0.17  -0.12  -0.17
   3   1    -0.04   0.06   0.02     0.00   0.00  -0.00     0.04  -0.01  -0.03
   4   1    -0.00   0.04   0.03     0.01  -0.00  -0.01     0.08  -0.01  -0.09
   5   6    -0.01  -0.07   0.16     0.01  -0.02  -0.02     0.08  -0.28  -0.19
   6   1     0.00  -0.07   0.08     0.00  -0.00  -0.01     0.03  -0.06  -0.09
   7   1     0.07  -0.00   0.02     0.00  -0.01  -0.01     0.00  -0.09  -0.05
   8   7    -0.07  -0.18   0.26    -0.00  -0.03   0.02    -0.03  -0.29  -0.08
   9   6     0.34   0.04   0.09     0.02   0.01   0.03     0.12   0.13   0.19
  10   1     0.08   0.09  -0.09     0.00   0.01  -0.00    -0.02   0.14   0.02
  11   1     0.12   0.02   0.02     0.01  -0.00   0.02     0.13   0.01   0.15
  12   1     0.20   0.00   0.08     0.01   0.01   0.01     0.04   0.09   0.07
  13   6    -0.26  -0.15   0.16    -0.02   0.02   0.02     0.01   0.30   0.13
  14   1    -0.02  -0.10  -0.01    -0.01   0.01   0.01    -0.04   0.10   0.14
  15   1    -0.08   0.01   0.10    -0.01   0.01   0.02    -0.01   0.13   0.10
  16   1    -0.16  -0.04  -0.01    -0.01   0.01  -0.01     0.08   0.18  -0.08
  17   6    -0.03   0.07  -0.38    -0.03   0.02  -0.01    -0.33   0.09   0.05
  18   1    -0.13  -0.07  -0.22    -0.02   0.01  -0.01    -0.11   0.11   0.04
  19   1     0.02   0.09  -0.19    -0.02   0.01  -0.01    -0.22  -0.02   0.02
  20   1     0.09   0.13  -0.10     0.01   0.02  -0.00    -0.03   0.10   0.03
  21   1     0.12   0.01   0.01     0.03   0.03   0.02    -0.06   0.04  -0.03
  22   6    -0.02  -0.02   0.02    -0.01  -0.01   0.02     0.02   0.04   0.04
  23   8    -0.01  -0.01   0.01     0.00  -0.00   0.02     0.05   0.01   0.05
  24   7     0.03   0.04  -0.03     0.02   0.04  -0.03    -0.08   0.02  -0.03
  25   1    -0.01  -0.01   0.01    -0.00   0.00  -0.00    -0.02  -0.02  -0.04
  26   1    -0.09  -0.12   0.10    -0.10  -0.11   0.10    -0.02   0.06  -0.03
  27   7     0.03   0.03  -0.04     0.03   0.02  -0.04     0.01  -0.06  -0.04
  28   1    -0.03  -0.05   0.04    -0.02  -0.05   0.03     0.07  -0.02  -0.04
  29   1    -0.01  -0.02   0.01    -0.02  -0.02   0.00    -0.06  -0.04  -0.04
  30   6     0.00   0.00  -0.00     0.02   0.04  -0.02     0.01   0.01  -0.01
  31   8     0.00   0.00  -0.00     0.00   0.04  -0.01     0.00   0.03  -0.00
  32   7    -0.00   0.01  -0.01     0.00  -0.03  -0.00    -0.00  -0.03   0.00
  33   1    -0.00  -0.00  -0.00     0.01   0.01   0.01     0.02   0.02   0.01
  34   1    -0.00   0.01  -0.00     0.00  -0.02  -0.00     0.01  -0.01   0.00
  35   7    -0.00  -0.00   0.00    -0.02  -0.06  -0.02    -0.03  -0.04   0.02
  36   1    -0.00  -0.00   0.00     0.06   0.13  -0.00     0.07   0.14   0.01
  37   1    -0.00  -0.00  -0.00     0.01   0.03   0.00    -0.01  -0.01  -0.01
  38   6    -0.00   0.00  -0.01    -0.02  -0.01   0.01    -0.02   0.02  -0.02
  39   8    -0.00   0.00  -0.00    -0.01  -0.01  -0.01    -0.02   0.01  -0.03
  40   7    -0.00  -0.01  -0.00     0.03   0.02  -0.02     0.03  -0.03  -0.01
  41   1     0.01   0.01  -0.00    -0.02  -0.03   0.02    -0.00  -0.05   0.05
  42   1    -0.00  -0.00   0.00    -0.01  -0.02   0.00     0.03  -0.01  -0.04
  43   7     0.01  -0.00   0.01     0.02   0.03  -0.02     0.02   0.01   0.05
  44   1     0.00   0.01   0.00    -0.12  -0.12   0.09    -0.01   0.01   0.04
  45   1     0.00  -0.01   0.00     0.02   0.01  -0.01     0.03  -0.01   0.01
  46   6     0.01   0.01  -0.00    -0.04  -0.11   0.05     0.01   0.01  -0.00
  47   8    -0.00   0.01   0.00     0.01  -0.08   0.05    -0.01   0.01  -0.00
  48   7    -0.00  -0.03   0.01     0.08   0.24  -0.11    -0.00  -0.03   0.01
  49   1    -0.00   0.01  -0.01     0.03  -0.00   0.03    -0.00  -0.00  -0.01
  50   1     0.03   0.08  -0.02    -0.26  -0.77   0.19     0.04   0.10  -0.02
  51   7    -0.01  -0.02  -0.00     0.03   0.19  -0.02    -0.01  -0.02  -0.00
  52   1     0.00   0.02  -0.01    -0.08  -0.11   0.03     0.01   0.02  -0.01
  53   1     0.01   0.01  -0.01    -0.05  -0.12   0.00     0.01   0.02  -0.00
                     43                     44                     45
                        a                      a                      a 
 Frequencies --   460.1605               461.0793               468.1831
 Red. masses --     3.1191                 4.1324                 5.9153
 Frc consts  --     0.0000                 0.0000                 0.0000
 IR Inten    --    51.5925                72.9998                59.3793
 Raman Activ --     0.0000                 0.0000                 0.0000
 Depolar     --     0.0000                 0.0000                 0.0000
 Atom AN      X      Y      Z        X      Y      Z        X      Y      Z
   1   8    -0.00   0.00   0.00     0.01  -0.00  -0.00     0.02   0.00  -0.02
   2   6     0.01  -0.01  -0.01    -0.04   0.03   0.05    -0.01   0.01   0.01
   3   1     0.00   0.00   0.00    -0.01   0.00   0.01     0.01  -0.01  -0.02
   4   1     0.01  -0.00  -0.01    -0.02   0.00   0.02    -0.02  -0.00   0.01
   5   6    -0.01  -0.02  -0.03    -0.02   0.07   0.05     0.07   0.02   0.10
   6   1    -0.01   0.02  -0.02    -0.01   0.01   0.02     0.04  -0.08   0.08
   7   1    -0.02  -0.03  -0.02     0.00   0.02   0.01     0.09   0.07   0.05
   8   7     0.05  -0.03   0.02     0.01   0.07   0.02    -0.15   0.03  -0.06
   9   6     0.01  -0.03   0.05    -0.03  -0.04  -0.05    -0.03   0.13  -0.11
  10   1     0.00  -0.01   0.02     0.00  -0.03  -0.01    -0.02   0.06  -0.06
  11   1     0.01  -0.01   0.02    -0.03  -0.00  -0.04     0.01   0.04  -0.03
  12   1    -0.01  -0.00   0.01    -0.01  -0.02  -0.02     0.03   0.03  -0.01
  13   6    -0.04   0.04  -0.02    -0.00  -0.09  -0.03     0.10  -0.05   0.07
  14   1    -0.02   0.02  -0.02     0.01  -0.02  -0.04     0.04  -0.05   0.08
  15   1    -0.04   0.00   0.01     0.00  -0.04  -0.03     0.09   0.01  -0.02
  16   1    -0.01   0.02  -0.02    -0.02  -0.05   0.02     0.03  -0.03   0.04
  17   6     0.01   0.04   0.00     0.08  -0.02  -0.01    -0.09  -0.13  -0.01
  18   1    -0.01   0.02  -0.00     0.02  -0.03  -0.01    -0.00  -0.04   0.01
  19   1    -0.01   0.01   0.00     0.06   0.00  -0.00     0.01  -0.04   0.01
  20   1     0.02   0.03   0.00     0.01  -0.02  -0.01    -0.05  -0.07  -0.01
  21   1    -0.01   0.00  -0.00     0.01  -0.02   0.01     0.02   0.00   0.01
  22   6    -0.02  -0.05  -0.06     0.02   0.05   0.06     0.03   0.10   0.11
  23   8    -0.08  -0.01  -0.06     0.08   0.01   0.06     0.17   0.00   0.10
  24   7     0.11  -0.04   0.03    -0.11   0.04  -0.02    -0.19   0.06  -0.04
  25   1     0.02   0.01   0.05    -0.02  -0.01  -0.05    -0.02   0.01  -0.09
  26   1     0.05  -0.05   0.01    -0.04   0.07  -0.03    -0.16  -0.01   0.05
  27   7    -0.03   0.07   0.07     0.02  -0.07  -0.06     0.06  -0.06  -0.12
  28   1    -0.11   0.03   0.07     0.11  -0.03  -0.07     0.25  -0.01  -0.17
  29   1     0.10   0.09   0.04    -0.10  -0.09  -0.04    -0.31  -0.33   0.04
  30   6    -0.03  -0.05   0.05     0.05   0.07  -0.07    -0.01  -0.03   0.00
  31   8    -0.01  -0.06   0.05     0.01   0.09  -0.07    -0.01  -0.03   0.00
  32   7    -0.01   0.10  -0.03     0.01  -0.14   0.04     0.02   0.05  -0.02
  33   1    -0.00   0.01  -0.04    -0.00  -0.01   0.05     0.01   0.00  -0.02
  34   1    -0.10  -0.04  -0.02     0.15   0.08   0.03    -0.05  -0.05  -0.02
  35   7     0.11   0.10  -0.06    -0.15  -0.14   0.08     0.03   0.07   0.01
  36   1    -0.15  -0.36  -0.02     0.19   0.49   0.03    -0.11  -0.19   0.00
  37   1     0.04   0.05   0.00    -0.05  -0.05   0.01     0.02   0.00   0.03
  38   6    -0.02   0.07  -0.03     0.02   0.06  -0.01     0.10  -0.06   0.04
  39   8     0.01   0.02  -0.11     0.02   0.02  -0.08     0.11  -0.03   0.08
  40   7     0.04  -0.00  -0.01     0.03   0.02   0.00    -0.09   0.13   0.04
  41   1    -0.27  -0.42   0.33    -0.22  -0.31   0.24    -0.18  -0.06  -0.00
  42   1     0.35   0.16  -0.28     0.22   0.11  -0.18     0.06   0.16   0.03
  43   7    -0.05  -0.03   0.13    -0.06  -0.01   0.06    -0.08  -0.08  -0.13
  44   1    -0.03  -0.01   0.06    -0.05  -0.04   0.05     0.01  -0.06  -0.11
  45   1     0.08   0.05  -0.01     0.05   0.05  -0.02    -0.06   0.06  -0.06
  46   6    -0.02  -0.01  -0.05     0.02   0.01   0.08    -0.02  -0.02  -0.09
  47   8     0.03  -0.02  -0.05    -0.06   0.04   0.08     0.06  -0.04  -0.09
  48   7    -0.06   0.03   0.01     0.09  -0.08  -0.03    -0.10   0.07   0.04
  49   1    -0.00   0.01   0.03     0.01  -0.01  -0.06    -0.01   0.01   0.06
  50   1    -0.05  -0.02   0.01     0.11   0.08  -0.03    -0.09  -0.01   0.02
  51   7     0.04  -0.00   0.05    -0.07   0.00  -0.08     0.07  -0.02   0.08
  52   1     0.06  -0.02   0.02    -0.07   0.11  -0.05     0.09  -0.09   0.04
  53   1    -0.02   0.01   0.06    -0.00  -0.10  -0.09     0.01   0.11   0.10
                     46                     47                     48
                        a                      a                      a 
 Frequencies --   472.2376               473.6806               479.0840
 Red. masses --     5.1303                 5.2619                 5.6846
 Frc consts  --     0.0000                 0.0000                 0.0000
 IR Inten    --    97.8313                35.6500                 4.1576
 Raman Activ --     0.0000                 0.0000                 0.0000
 Depolar     --     0.0000                 0.0000                 0.0000
 Atom AN      X      Y      Z        X      Y      Z        X      Y      Z
   1   8    -0.01  -0.00   0.01    -0.02  -0.00   0.01     0.00  -0.00  -0.00
   2   6    -0.01  -0.00   0.01    -0.01   0.00   0.01    -0.01   0.01   0.02
   3   1    -0.01   0.00   0.01    -0.01   0.00   0.02     0.00  -0.00  -0.00
   4   1     0.00   0.00   0.00     0.01   0.00   0.00    -0.01  -0.00   0.01
   5   6    -0.04   0.01  -0.04    -0.08   0.02  -0.07     0.01   0.03   0.03
   6   1    -0.03   0.05  -0.04    -0.04   0.09  -0.06     0.01  -0.01   0.02
   7   1    -0.05  -0.04  -0.03    -0.08  -0.06  -0.04     0.01   0.02   0.01
   8   7     0.09   0.00   0.04     0.13   0.01   0.07    -0.02   0.04  -0.01
   9   6    -0.00  -0.09   0.05     0.01  -0.14   0.07    -0.02   0.01  -0.03
  10   1     0.01  -0.05   0.04     0.02  -0.08   0.05    -0.00  -0.01  -0.01
  11   1    -0.02  -0.03   0.01    -0.03  -0.04   0.00    -0.02   0.00  -0.02
  12   1    -0.03  -0.02   0.00    -0.03  -0.04   0.01    -0.00  -0.00  -0.01
  13   6    -0.06   0.02  -0.06    -0.10   0.00  -0.08     0.02  -0.03  -0.01
  14   1    -0.02   0.02  -0.06    -0.03   0.03  -0.09     0.01  -0.01  -0.00
  15   1    -0.06  -0.02   0.00    -0.08  -0.02   0.01     0.01  -0.01  -0.02
  16   1    -0.02   0.01  -0.02    -0.04  -0.00  -0.03     0.00  -0.02   0.01
  17   6     0.08   0.07   0.01     0.12   0.10   0.00     0.02  -0.03   0.00
  18   1     0.01   0.02  -0.00     0.01   0.02  -0.01     0.01  -0.01   0.00
  19   1     0.01   0.02  -0.00     0.02   0.04  -0.01     0.02  -0.01   0.00
  20   1     0.03   0.03   0.01     0.05   0.05   0.01    -0.01  -0.02  -0.00
  21   1    -0.01  -0.01  -0.00    -0.01  -0.01  -0.00     0.01   0.00   0.01
  22   6     0.01   0.05   0.02    -0.01   0.01  -0.03     0.03   0.05   0.17
  23   8     0.10   0.00   0.00     0.02   0.00  -0.04     0.10  -0.01   0.19
  24   7    -0.08  -0.01   0.02     0.00  -0.03   0.05    -0.17   0.14  -0.15
  25   1     0.01   0.04  -0.03     0.02   0.03   0.01    -0.07  -0.06  -0.10
  26   1    -0.07  -0.05   0.05     0.02  -0.03   0.01    -0.14   0.11  -0.03
  27   7     0.02   0.04  -0.04    -0.01   0.06   0.01     0.08  -0.20  -0.13
  28   1     0.21   0.10  -0.18     0.10   0.11  -0.11    -0.03  -0.28   0.12
  29   1    -0.29  -0.35   0.15    -0.15  -0.20   0.13     0.12   0.24  -0.31
  30   6    -0.02  -0.03  -0.04     0.02   0.01   0.06     0.01   0.01  -0.07
  31   8     0.01  -0.05  -0.04    -0.02   0.04   0.06     0.01   0.01  -0.07
  32   7     0.07   0.03   0.07    -0.08  -0.00  -0.09     0.08  -0.01   0.05
  33   1    -0.02  -0.02   0.04     0.04   0.03  -0.06    -0.02  -0.02   0.05
  34   1    -0.01  -0.09   0.01    -0.02   0.08  -0.02     0.03  -0.07   0.01
  35   7     0.01   0.13   0.02     0.02  -0.14  -0.03    -0.06   0.08   0.08
  36   1    -0.20  -0.27   0.00     0.18   0.22  -0.00    -0.16  -0.12   0.02
[...]
  44   1    -0.01   0.00  -0.01     0.00  -0.00   0.00    -0.16   0.07  -0.11
  45   1     0.03   0.03   0.09    -0.01  -0.01  -0.03     0.23   0.33   0.86
  46   6    -0.00   0.00   0.02    -0.00  -0.00  -0.00     0.00   0.00  -0.01
  47   8     0.00   0.00  -0.01     0.00  -0.00  -0.00    -0.00  -0.00   0.01
  48   7    -0.06   0.01   0.02     0.02  -0.00  -0.01     0.01  -0.00  -0.00
  49   1     0.22  -0.06  -0.11    -0.08   0.02   0.04    -0.04   0.01   0.02
  50   1    -0.00   0.01   0.03     0.00  -0.00  -0.01     0.00  -0.00  -0.01
  51   7     0.00  -0.00  -0.00     0.00   0.00   0.00     0.00  -0.00   0.00
  52   1     0.00  -0.00  -0.00    -0.00   0.00   0.00    -0.00   0.00   0.01
  53   1     0.01  -0.00   0.01    -0.00   0.00  -0.00    -0.01   0.01  -0.01
                    142                    143                    144
                        a                      a                      a 
 Frequencies --  3497.4077              3498.7333              3500.6433
 Red. masses --     1.4516                 1.4496                 1.4543
 Frc consts  --     0.0000                 0.0000                 0.0000
 IR Inten    --    18.5382                17.1961                13.9663
 Raman Activ --     0.0000                 0.0000                 0.0000
 Depolar     --     0.0000                 0.0000                 0.0000
 Atom AN      X      Y      Z        X      Y      Z        X      Y      Z
   1   8    -0.00   0.00   0.00    -0.00   0.00   0.00     0.00  -0.00  -0.00
   2   6    -0.00  -0.00  -0.00     0.00  -0.00   0.00    -0.00   0.00  -0.00
   3   1     0.00   0.00   0.00    -0.00  -0.00  -0.00     0.00   0.00  -0.00
   4   1    -0.00   0.00  -0.00     0.00  -0.00   0.00     0.00   0.00   0.00
   5   6     0.00   0.00   0.00     0.00  -0.00  -0.00     0.00  -0.00   0.00
   6   1    -0.00  -0.00  -0.00     0.00   0.00   0.00     0.00  -0.00   0.00
   7   1     0.00   0.00  -0.00     0.00   0.00  -0.00    -0.00   0.00  -0.00
   8   7     0.00   0.00  -0.00    -0.00   0.00   0.00    -0.00  -0.00  -0.00
   9   6     0.00   0.00   0.00    -0.00  -0.00   0.00     0.00   0.00   0.00
  10   1    -0.00  -0.00  -0.00     0.00   0.00   0.00    -0.00  -0.00   0.00
  11   1     0.00   0.00   0.00    -0.00   0.00   0.00     0.00  -0.00   0.00
  12   1    -0.00  -0.00   0.00     0.00  -0.00  -0.00     0.00   0.00  -0.00
  13   6     0.00   0.00   0.00     0.00  -0.00  -0.00     0.00  -0.00   0.00
  14   1    -0.00  -0.00  -0.00     0.00   0.00   0.00    -0.00  -0.00  -0.00
  15   1     0.00   0.00   0.00    -0.00  -0.00  -0.00    -0.00   0.00  -0.00
  16   1     0.00   0.00   0.00    -0.00   0.00   0.00     0.00  -0.00  -0.00
  17   6     0.00  -0.00  -0.00     0.00  -0.00  -0.00     0.00  -0.00   0.00
  18   1    -0.00  -0.00   0.00    -0.00  -0.00   0.00     0.00  -0.00  -0.00
  19   1     0.00   0.00   0.00    -0.00   0.00   0.00     0.00  -0.00   0.00
  20   1    -0.00   0.00  -0.00    -0.00  -0.00  -0.00    -0.00   0.00  -0.00
  21   1     0.00  -0.00  -0.00     0.00  -0.00  -0.00    -0.00   0.00   0.00
  22   6    -0.00  -0.00  -0.00     0.00  -0.00   0.00    -0.00   0.00  -0.00
  23   8     0.00   0.00   0.00    -0.00  -0.00  -0.00     0.00  -0.00   0.00
  24   7     0.01   0.00   0.01    -0.00   0.00  -0.00     0.00  -0.00   0.00
  25   1    -0.01   0.01  -0.00     0.00  -0.00   0.00    -0.00   0.00  -0.00
  26   1    -0.01  -0.01  -0.03    -0.00  -0.00  -0.00     0.00   0.00   0.00
  27   7    -0.17   0.04  -0.06     0.00  -0.00   0.00    -0.00   0.00  -0.00
  28   1     0.30   0.32   0.57    -0.00  -0.00  -0.00     0.00   0.00   0.00
  29   1     0.34  -0.46  -0.36    -0.00   0.00   0.00     0.00  -0.00  -0.00
  30   6    -0.00   0.00  -0.00     0.00  -0.00  -0.00    -0.00   0.00  -0.00
  31   8     0.00  -0.00   0.00    -0.00   0.00   0.00     0.00  -0.00   0.00
  32   7     0.00  -0.00  -0.00    -0.00   0.00   0.00     0.00  -0.00   0.00
  33   1    -0.01   0.01  -0.01     0.00  -0.00   0.00    -0.00   0.00  -0.00
  34   1    -0.00  -0.00   0.01     0.00   0.00  -0.00    -0.00  -0.00   0.00
  35   7     0.00  -0.00   0.00    -0.00   0.00  -0.00     0.00   0.00  -0.00
  36   1     0.00   0.00  -0.00    -0.00  -0.00   0.01    -0.00  -0.00   0.00
  37   1    -0.00   0.00   0.00     0.01  -0.00  -0.00     0.00  -0.00  -0.00
  38   6    -0.00   0.00  -0.00    -0.00   0.00  -0.00    -0.00   0.00  -0.00
  39   8     0.00  -0.00   0.00     0.00  -0.00   0.00     0.00  -0.00   0.00
  40   7     0.00   0.00   0.00     0.00   0.00   0.00    -0.05  -0.03  -0.18
  41   1     0.00  -0.00  -0.00     0.01  -0.01  -0.01    -0.33   0.47   0.29
  42   1    -0.00   0.00  -0.00    -0.01   0.01  -0.01     0.51  -0.38   0.37
  43   7    -0.00   0.00   0.00    -0.00   0.00   0.00     0.01   0.00   0.01
  44   1     0.00  -0.00   0.00     0.01  -0.01   0.01    -0.03   0.01  -0.02
  45   1    -0.00  -0.00  -0.00    -0.00  -0.01  -0.02    -0.01  -0.01  -0.02
  46   6    -0.00   0.00  -0.00     0.00  -0.00  -0.00    -0.00  -0.00  -0.00
  47   8     0.00  -0.00   0.00     0.00   0.00   0.00     0.00   0.00   0.00
  48   7     0.00  -0.00   0.00    -0.01   0.01   0.01    -0.00   0.00   0.00
  49   1    -0.00   0.00   0.00     0.01  -0.00  -0.00     0.00  -0.00  -0.00
  50   1    -0.00  -0.00  -0.00     0.00  -0.01  -0.05    -0.00  -0.00  -0.00
  51   7     0.00  -0.00  -0.00     0.14  -0.09  -0.08     0.00  -0.00  -0.00
  52   1    -0.00   0.00   0.00    -0.00   0.15   0.70    -0.00   0.00   0.01
  53   1    -0.00   0.00  -0.00    -0.51   0.18  -0.39    -0.01   0.00  -0.01
                    145                    146                    147
                        a                      a                      a 
 Frequencies --  3526.3595              3526.7173              3536.9228
 Red. masses --     1.8906                 1.8958                 1.9609
 Frc consts  --     0.0000                 0.0000                 0.0000
 IR Inten    --    18.5763                 2.7153                22.8101
 Raman Activ --     0.0000                 0.0000                 0.0000
 Depolar     --     0.0000                 0.0000                 0.0000
 Atom AN      X      Y      Z        X      Y      Z        X      Y      Z
   1   8    -0.00   0.00   0.00     0.00  -0.00  -0.00    -0.00   0.00   0.00
   2   6    -0.00   0.00   0.00     0.00  -0.00  -0.00    -0.00  -0.00  -0.00
   3   1     0.00   0.00   0.00    -0.00  -0.00  -0.00     0.00   0.00   0.00
   4   1     0.00  -0.00  -0.00    -0.00   0.00   0.00     0.00  -0.00  -0.00
   5   6     0.00   0.00   0.00     0.00  -0.00   0.00     0.00  -0.00   0.00
   6   1    -0.00  -0.00  -0.00     0.00  -0.00  -0.00    -0.00  -0.00   0.00
   7   1    -0.00   0.00  -0.00    -0.00   0.00  -0.00    -0.00   0.00  -0.00
   8   7     0.00  -0.00   0.00     0.00   0.00  -0.00    -0.00  -0.00   0.00
   9   6     0.00   0.00  -0.00     0.00   0.00  -0.00    -0.00   0.00   0.00
  10   1    -0.00  -0.00  -0.00    -0.00  -0.00  -0.00    -0.00  -0.00  -0.00
  11   1    -0.00   0.00   0.00     0.00  -0.00   0.00     0.00  -0.00  -0.00
  12   1    -0.00  -0.00   0.00    -0.00  -0.00   0.00     0.00  -0.00  -0.00
  13   6     0.00   0.00   0.00     0.00   0.00  -0.00     0.00   0.00  -0.00
  14   1    -0.00  -0.00  -0.00    -0.00  -0.00  -0.00    -0.00  -0.00  -0.00
  15   1    -0.00   0.00   0.00     0.00   0.00   0.00    -0.00   0.00   0.00
  16   1     0.00  -0.00   0.00     0.00  -0.00  -0.00    -0.00   0.00   0.00
  17   6    -0.00   0.00   0.00    -0.00   0.00  -0.00    -0.00   0.00  -0.00
  18   1     0.00   0.00  -0.00    -0.00  -0.00  -0.00     0.00   0.00  -0.00
  19   1     0.00  -0.00   0.00    -0.00  -0.00   0.00     0.00   0.00   0.00
  20   1    -0.00   0.00   0.00     0.00  -0.00   0.00     0.00   0.00   0.00
  21   1     0.00  -0.00  -0.00    -0.00   0.00   0.00     0.00  -0.00  -0.00
  22   6     0.00  -0.00   0.00     0.00   0.00   0.00     0.00  -0.00   0.00
  23   8    -0.00   0.00  -0.00     0.00  -0.00  -0.00    -0.00   0.00  -0.00
  24   7     0.00   0.00   0.00     0.00   0.00   0.00     0.00   0.00   0.00
  25   1     0.00  -0.00   0.00     0.00   0.00   0.00    -0.00   0.00  -0.00
  26   1    -0.01  -0.01  -0.01    -0.00  -0.00  -0.00    -0.00  -0.00  -0.01
  27   7    -0.00  -0.00  -0.00    -0.00  -0.00  -0.00     0.00  -0.00  -0.00
  28   1     0.00   0.00   0.00     0.00   0.00   0.00     0.00   0.00   0.00
  29   1    -0.00   0.00   0.00     0.00  -0.00  -0.00    -0.00   0.00   0.00
  30   6     0.00  -0.00  -0.00     0.00  -0.00  -0.01     0.00  -0.00  -0.00
  31   8    -0.00   0.00   0.00    -0.00   0.00   0.00    -0.00   0.00   0.00
  32   7    -0.00  -0.00   0.02     0.00  -0.01   0.04    -0.00  -0.00   0.00
  33   1    -0.00   0.00  -0.00    -0.01   0.01  -0.01    -0.00   0.00  -0.00
  34   1     0.00   0.01  -0.07     0.01   0.01  -0.15     0.00   0.00  -0.01
  35   7     0.01  -0.00  -0.09     0.02  -0.00  -0.24    -0.00   0.00   0.00
  36   1    -0.01  -0.00   0.35    -0.02  -0.00   0.88    -0.00  -0.00   0.00
  37   1    -0.03   0.01   0.01    -0.08   0.01   0.02     0.01  -0.00  -0.00
  38   6    -0.00   0.00   0.00    -0.00   0.00   0.00     0.01   0.00   0.01
  39   8     0.00  -0.00  -0.00    -0.00  -0.00  -0.00    -0.00   0.00  -0.00
  40   7     0.00  -0.00   0.00     0.00   0.00   0.00    -0.02   0.02   0.01
  41   1    -0.00  -0.00   0.00     0.00  -0.00  -0.00     0.05  -0.07  -0.04
  42   1    -0.00   0.00  -0.00    -0.00   0.00  -0.00     0.02  -0.01   0.02
  43   7    -0.00  -0.00  -0.00    -0.00  -0.00  -0.00     0.20  -0.08   0.15
  44   1     0.00  -0.00   0.00     0.00  -0.00   0.00    -0.75   0.37  -0.44
  45   1     0.00   0.00   0.00     0.00   0.00   0.00    -0.03  -0.07  -0.16
  46   6     0.00  -0.00  -0.01    -0.00   0.00   0.00    -0.00  -0.00   0.00
  47   8    -0.00   0.00   0.00     0.00  -0.00   0.00    -0.00   0.00  -0.00
  48   7     0.01  -0.06  -0.23    -0.00   0.02   0.09    -0.00   0.00   0.00
  49   1    -0.07   0.01   0.01     0.02  -0.00  -0.00     0.00  -0.00  -0.00
  50   1    -0.00   0.23   0.86     0.00  -0.09  -0.34    -0.00  -0.00  -0.00
  51   7     0.02  -0.01   0.01    -0.01   0.00  -0.00     0.00  -0.00  -0.01
  52   1     0.00  -0.00  -0.00    -0.00  -0.00  -0.01    -0.00   0.00   0.02
  53   1    -0.06   0.02  -0.04     0.02  -0.01   0.02     0.00  -0.00   0.00
                    148                    149                    150
                        a                      a                      a 
 Frequencies --  3539.1867              3543.5725              3561.8525
 Red. masses --     1.9017                 1.9315                 2.1762
 Frc consts  --     0.0000                 0.0000                 0.0000
 IR Inten    --    14.7003                21.2081                13.2047
 Raman Activ --     0.0000                 0.0000                 0.0000
 Depolar     --     0.0000                 0.0000                 0.0000
 Atom AN      X      Y      Z        X      Y      Z        X      Y      Z
   1   8    -0.00   0.00   0.00     0.00   0.00  -0.00     0.00  -0.00  -0.00
   2   6    -0.00  -0.00   0.00     0.00  -0.00   0.00     0.00   0.00   0.00
   3   1    -0.00  -0.00   0.00     0.00   0.00  -0.00     0.00   0.00  -0.00
   4   1    -0.00  -0.00  -0.00    -0.00   0.00   0.00     0.00  -0.00  -0.00
   5   6    -0.00  -0.00  -0.00    -0.00  -0.00   0.00     0.00   0.00   0.00
   6   1     0.00   0.00   0.00     0.00  -0.00   0.00    -0.00  -0.00  -0.00
   7   1     0.00  -0.00   0.00    -0.00   0.00  -0.00    -0.00   0.00  -0.00
   8   7    -0.00  -0.00  -0.00     0.00   0.00  -0.00     0.00  -0.00   0.00
   9   6     0.00   0.00   0.00    -0.00  -0.00  -0.00     0.00   0.00   0.00
  10   1    -0.00  -0.00  -0.00     0.00   0.00   0.00    -0.00  -0.00  -0.00
  11   1    -0.00   0.00   0.00    -0.00   0.00   0.00     0.00   0.00   0.00
  12   1     0.00   0.00  -0.00    -0.00  -0.00   0.00     0.00   0.00   0.00
  13   6     0.00   0.00  -0.00    -0.00  -0.00  -0.00     0.00   0.00   0.00
  14   1    -0.00  -0.00   0.00     0.00   0.00   0.00    -0.00  -0.00  -0.00
  15   1     0.00  -0.00   0.00     0.00  -0.00   0.00     0.00   0.00  -0.00
  16   1    -0.00  -0.00   0.00    -0.00  -0.00   0.00     0.00  -0.00  -0.00
  17   6     0.00   0.00  -0.00    -0.00   0.00  -0.00     0.00  -0.00   0.00
  18   1    -0.00  -0.00   0.00    -0.00  -0.00   0.00     0.00   0.00  -0.00
  19   1     0.00  -0.00   0.00    -0.00   0.00   0.00     0.00  -0.00  -0.00
  20   1     0.00  -0.00   0.00     0.00  -0.00   0.00     0.00   0.00  -0.00
  21   1     0.00  -0.00  -0.00    -0.00   0.00   0.00    -0.00   0.00   0.00
  22   6    -0.01   0.00  -0.01    -0.00  -0.00  -0.00    -0.00   0.01   0.01
  23   8     0.00   0.00   0.00     0.00  -0.00   0.00    -0.00  -0.00  -0.00
  24   7    -0.11  -0.09  -0.22     0.00   0.00   0.01     0.01   0.01   0.02
  25   1     0.06  -0.04   0.02     0.00  -0.00   0.00    -0.01   0.01  -0.00
  26   1     0.36   0.37   0.80    -0.01  -0.01  -0.03    -0.04  -0.04  -0.09
  27   7    -0.01   0.02   0.02     0.00   0.00   0.00    -0.02   0.19   0.23
  28   1    -0.02  -0.02  -0.03    -0.01  -0.01  -0.01    -0.29  -0.28  -0.51
  29   1     0.05  -0.07  -0.05     0.00  -0.00  -0.00     0.38  -0.46  -0.35
  30   6     0.00  -0.00  -0.00    -0.00   0.00  -0.01    -0.00  -0.00   0.00
  31   8     0.00   0.00   0.00     0.00  -0.00   0.00    -0.00  -0.00  -0.00
  32   7    -0.00   0.00  -0.01    -0.00   0.04  -0.26     0.00  -0.00   0.00
  33   1     0.00  -0.00   0.00     0.09  -0.08   0.04    -0.01   0.01  -0.00
  34   1    -0.00  -0.00   0.03    -0.07  -0.09   0.93     0.00   0.00  -0.01
  35   7     0.00  -0.00  -0.00     0.00   0.00  -0.04    -0.00   0.00   0.00
  36   1    -0.00  -0.00   0.01    -0.00  -0.00   0.16     0.00   0.00  -0.00
  37   1    -0.00   0.00   0.00    -0.01   0.00   0.00     0.00  -0.00  -0.00
  38   6     0.00  -0.00   0.00     0.00   0.00   0.00     0.00  -0.00  -0.00
  39   8     0.00   0.00  -0.00    -0.00  -0.00  -0.00     0.00  -0.00   0.00
  40   7    -0.00   0.00   0.00    -0.00   0.00   0.00     0.00  -0.00   0.00
  41   1     0.00  -0.00  -0.00     0.00  -0.00  -0.00    -0.00   0.00   0.00
  42   1     0.00  -0.00   0.00     0.00  -0.00   0.00    -0.00   0.00  -0.00
  43   7     0.00  -0.00   0.00     0.00  -0.00   0.00     0.00  -0.00  -0.00
  44   1    -0.01   0.00  -0.01    -0.01   0.00  -0.01    -0.00   0.00  -0.00
  45   1    -0.00  -0.00  -0.00     0.00  -0.00  -0.00     0.00   0.00   0.00
  46   6    -0.00  -0.00  -0.00    -0.00  -0.00  -0.00    -0.00   0.00  -0.00
  47   8     0.00   0.00  -0.00    -0.00  -0.00   0.00    -0.00  -0.00   0.00
  48   7     0.00  -0.00  -0.00     0.00  -0.00  -0.00    -0.00   0.00   0.00
  49   1    -0.00   0.00   0.00    -0.00   0.00   0.00     0.00  -0.00  -0.00
  50   1    -0.00   0.00   0.01     0.00   0.00   0.01     0.00  -0.00  -0.00
  51   7     0.00  -0.00   0.00     0.00  -0.00   0.00    -0.00   0.00  -0.00
  52   1     0.00  -0.00  -0.00     0.00  -0.00  -0.00    -0.00   0.00   0.00
  53   1    -0.00   0.00  -0.00    -0.00   0.00  -0.00     0.00  -0.00   0.00
                    151                    152                    153
                        a                      a                      a 
 Frequencies --  3564.5469              3565.7551              3580.7514
 Red. masses --     2.1819                 2.1753                 1.8788
 Frc consts  --     0.0000                 0.0000                 0.0000
 IR Inten    --    13.6235                 8.9076                21.7808
 Raman Activ --     0.0000                 0.0000                 0.0000
 Depolar     --     0.0000                 0.0000                 0.0000
 Atom AN      X      Y      Z        X      Y      Z        X      Y      Z
   1   8    -0.00   0.00   0.00    -0.00   0.00   0.00    -0.13   0.04   0.20
   2   6    -0.00   0.00   0.00    -0.00  -0.00  -0.00    -0.00   0.00   0.00
   3   1     0.00   0.00   0.00     0.00   0.00  -0.00    -0.00  -0.00  -0.00
   4   1     0.00  -0.00  -0.00     0.00  -0.00   0.00     0.00  -0.00  -0.00
   5   6     0.00   0.00   0.00     0.00  -0.00   0.00     0.00  -0.00   0.00
   6   1     0.00  -0.00  -0.00     0.00  -0.00   0.00     0.00   0.00   0.00
   7   1    -0.00   0.00  -0.00    -0.00   0.00  -0.00    -0.00   0.00   0.00
   8   7    -0.00   0.00   0.00     0.00   0.00  -0.00     0.00  -0.00  -0.00
   9   6    -0.00   0.00  -0.00    -0.00   0.00   0.00     0.00   0.00  -0.00
  10   1     0.00   0.00   0.00    -0.00  -0.00   0.00     0.00   0.00   0.00
  11   1     0.00  -0.00   0.00     0.00  -0.00   0.00    -0.00  -0.00   0.00
  12   1    -0.00  -0.00   0.00     0.00  -0.00   0.00    -0.00  -0.00   0.01
  13   6     0.00  -0.00   0.00     0.00  -0.00   0.00    -0.00  -0.00  -0.00
  14   1     0.00  -0.00   0.00     0.00  -0.00   0.00     0.00   0.00   0.00
  15   1    -0.00   0.00  -0.00    -0.00   0.00  -0.00     0.00  -0.00   0.00
  16   1     0.00  -0.00   0.00     0.00  -0.00   0.00    -0.00  -0.00   0.00
  17   6     0.00  -0.00   0.00     0.00  -0.00   0.00     0.00   0.00  -0.00
  18   1     0.00  -0.00  -0.00     0.00  -0.00   0.00    -0.00  -0.00   0.00
  19   1     0.00  -0.00   0.00     0.00  -0.00   0.00     0.00  -0.00  -0.00
  20   1    -0.00   0.00  -0.00    -0.00   0.00  -0.00    -0.00   0.00   0.00
  21   1     0.00  -0.00  -0.00     0.00  -0.00  -0.00     0.52  -0.14  -0.81
  22   6     0.00  -0.00  -0.00    -0.00  -0.00  -0.00    -0.00   0.00   0.00
  23   8     0.00   0.00   0.00     0.00   0.00   0.00     0.00  -0.00  -0.00
  24   7    -0.00  -0.00  -0.00    -0.00  -0.00  -0.00     0.00   0.00   0.00
  25   1     0.00  -0.00   0.00    -0.00  -0.00  -0.00    -0.00  -0.00   0.00
  26   1     0.00   0.00   0.00     0.00   0.00   0.00    -0.00  -0.00  -0.00
  27   7     0.00  -0.00  -0.00     0.00  -0.00  -0.00     0.00   0.00   0.00
  28   1     0.00   0.00   0.00     0.00   0.00   0.00    -0.00  -0.00  -0.00
  29   1    -0.00   0.00   0.00    -0.00   0.00   0.00     0.00  -0.00  -0.00
  30   6    -0.00   0.00  -0.00     0.00  -0.00  -0.00    -0.00  -0.00   0.00
  31   8    -0.00   0.00   0.00    -0.00   0.00   0.00     0.00   0.00  -0.00
  32   7    -0.00   0.00  -0.00     0.00   0.00  -0.00     0.00   0.00  -0.00
  33   1     0.00  -0.00   0.00    -0.00  -0.00  -0.00     0.00  -0.00   0.00
  34   1    -0.00  -0.00   0.00    -0.00  -0.00   0.00    -0.00  -0.00   0.00
  35   7     0.00  -0.00  -0.00    -0.00   0.00   0.00    -0.00   0.00   0.00
  36   1    -0.00  -0.00   0.01     0.00  -0.00   0.00    -0.00  -0.00  -0.00
  37   1    -0.01   0.00   0.00     0.00  -0.00  -0.00     0.00  -0.00  -0.00
  38   6     0.00  -0.00  -0.00     0.01  -0.01  -0.00     0.00  -0.00   0.00
  39   8    -0.00   0.00  -0.00    -0.00   0.00  -0.00    -0.00   0.00  -0.00
  40   7     0.01  -0.02  -0.00     0.20  -0.22  -0.00    -0.00   0.00  -0.00
  41   1    -0.03   0.04   0.02    -0.35   0.51   0.34     0.00  -0.00  -0.00
  42   1    -0.03   0.02  -0.02    -0.42   0.31  -0.34     0.00  -0.00   0.00
  43   7    -0.00  -0.00  -0.00     0.02  -0.01   0.02    -0.00   0.00  -0.00
  44   1     0.00  -0.00   0.00    -0.07   0.04  -0.04     0.00  -0.00   0.00
  45   1     0.00   0.00   0.01    -0.00  -0.01  -0.02    -0.00  -0.00  -0.00
  46   6    -0.01   0.00  -0.01     0.00  -0.00   0.00     0.00  -0.00  -0.00
  47   8     0.00   0.00   0.00    -0.00  -0.00  -0.00    -0.00   0.00   0.00
  48   7     0.00  -0.00  -0.01    -0.00   0.00   0.00    -0.00   0.00   0.00
  49   1    -0.01   0.00   0.00     0.00  -0.00  -0.00     0.00  -0.00  -0.00
  50   1     0.00   0.02   0.06    -0.00  -0.00  -0.01     0.00  -0.00  -0.00
  51   7    -0.13   0.01  -0.27     0.01  -0.00   0.02     0.00   0.00   0.00
  52   1    -0.03   0.15   0.63     0.00  -0.01  -0.04     0.00  -0.00  -0.00
  53   1     0.54  -0.20   0.39    -0.04   0.01  -0.03    -0.00   0.00  -0.00
