      -----------------------------------------------------------      
     |                   =====================                   |     
     |                           x T B                           |     
     |                   =====================                   |     
     |                         S. Grimme                         |     
     |          Mulliken Center for Theoretical Chemistry        |     
     |                    University of Bonn                     |     
      -----------------------------------------------------------      

   * xtb version 6.6.1 (unknown-commit) compiled by '@Linux' on 12/27/2023

   xtb is free software: you can redistribute it and/or modify it under
   the terms of the GNU Lesser General Public License as published by
   the Free Software Foundation, either version 3 of the License, or
   (at your option) any later version.
   
   xtb is distributed in the hope that it will be useful,
   but WITHOUT ANY WARRANTY; without even the implied warranty of
   MERCHANTABILITY or FITNESS FOR A PARTICULAR PURPOSE.  See the
   GNU Lesser General Public License for more details.
   
   Cite this work as:
   * C. Bannwarth, E. Caldeweyher, S. Ehlert, A. Hansen, P. Pracht,
     J. Seibert, S. Spicher, S. Grimme, WIREs Comput. Mol. Sci., 2020, 11,
     e01493. DOI: 10.1002/wcms.1493
   
   for GFN2-xTB:
   * C. Bannwarth, S. Ehlert and S. Grimme., J. Chem. Theory Comput., 2019,
     15, 1652-1671. DOI: 10.1021/acs.jctc.8b01176
   for GFN1-xTB:
   * S. Grimme, C. Bannwarth, P. Shushkov, J. Chem. Theory Comput., 2017,
     13, 1989-2009. DOI: 10.1021/acs.jctc.7b00118
   for GFN0-xTB:
   * P. Pracht, E. Caldeweyher, S. Ehlert, S. Grimme, ChemRxiv, 2019, preprint.
     DOI: 10.26434/chemrxiv.8326202.v1
   for GFN-FF:
   * S. Spicher and S. Grimme, Angew. Chem. Int. Ed., 2020, 59, 15665-15673.
     DOI: 10.1002/anie.202004239
   
   for ALPB and GBSA implicit solvation:
   * S. Ehlert, M. Stahn, S. Spicher, S. Grimme, J. Chem. Theory Comput.,
     2021, 17, 4250-4261. DOI: 10.1021/acs.jctc.1c00471
   
   for DFT-D4:
   * E. Caldeweyher, C. Bannwarth and S. Grimme, J. Chem. Phys., 2017,
     147, 034112. DOI: 10.1063/1.4993215
   * E. Caldeweyher, S. Ehlert, A. Hansen, H. Neugebauer, S. Spicher,
     C. Bannwarth and S. Grimme, J. Chem. Phys., 2019, 150, 154122.
     DOI: 10.1063/1.5090222
   * E. Caldeweyher, J.-M. Mewes, S. Ehlert and S. Grimme, Phys. Chem. Chem. Phys.
     2020, 22, 8499-8512. DOI: 10.1039/D0CP00502A
   
   for sTDA-xTB:
   * S. Grimme and C. Bannwarth, J. Chem. Phys., 2016, 145, 054103.
     DOI: 10.1063/1.4959605
   
   in the mass-spec context:
   * V. Asgeirsson, C. Bauer and S. Grimme, Chem. Sci., 2017, 8, 4879.
     DOI: 10.1039/c7sc00601b
   * J. Koopman and S. Grimme, ACS Omega 2019, 4, 12, 15120-15133.
     DOI: 10.1021/acsomega.9b02011
   
   for metadynamics refer to:
   * S. Grimme, J. Chem. Theory Comput., 2019, 155, 2847-2862
     DOI: 10.1021/acs.jctc.9b00143
   
   for SPH calculations refer to:
   * S. Spicher and S. Grimme, J. Chem. Theory Comput., 2021, 17, 1701-1714
     DOI: 10.1021/acs.jctc.0c01306
   
   with help from (in alphabetical order)
   P. Atkinson, C. Bannwarth, F. Bohle, G. Brandenburg, E. Caldeweyher
   M. Checinski, S. Dohm, S. Ehlert, S. Ehrlich, I. Gerasimov, C. Hölzer
   A. Katbashev, J. Koopman, C. Lavigne, S. Lehtola, F. März, M. Müller,
   F. Musil, H. Neugebauer, J. Pisarek, C. Plett, P. Pracht, F. Pultar,
   J. Seibert, P. Shushkov, S. Spicher, M. Stahn, M. Steiner, T. Strunk,
   J. Stückrath, T. Rose, and J. Unsleber
   
 * started run on 2024/01/10 at 18:30:20.140     

           -------------------------------------------------
          |                Calculation Setup                |
           -------------------------------------------------

          program call               : xtb struc.xyz --gfn2 --hess
          hostname                   : swaroop
          coordinate file            : struc.xyz
          omp threads                :                     1

   ID    Z sym.   atoms
    1    8 O      1, 23, 31, 39, 47
    2    6 C      2, 5, 9, 13, 17, 22, 30, 38, 46
    3    1 H      3, 4, 6, 7, 10-12, 14-16, 18-21, 25, 26, 28, 29, 33, 34,
                  36, 37, 41, 42, 44, 45, 49, 50, 52, 53
    4    7 N      8, 24, 27, 32, 35, 40, 43, 48, 51

molecular fragmentation (1/2 indicates fragments):
11111111111111111111122222222222222222222222222222222
# atoms in fragment 1/2:    21    32
 fragment masses (1/2) :      104.17      240.22
CMA distance (Bohr)    :   3.857
constraining FC (au)   :  0.0500

           -------------------------------------------------
          |                 G F N 2 - x T B                 |
           -------------------------------------------------

        Reference                      10.1021/acs.jctc.8b01176
      * Hamiltonian:
        H0-scaling (s, p, d)           1.850000    2.230000    2.230000
        zeta-weighting                 0.500000
      * Dispersion:
        s8                             2.700000
        a1                             0.520000
        a2                             5.000000
        s9                             5.000000
      * Repulsion:
        kExp                           1.500000    1.000000
        rExp                           1.000000
      * Coulomb:
        alpha                          2.000000
        third order                    shell-resolved
        anisotropic                    true
        a3                             3.000000
        a5                             4.000000
        cn-shift                       1.200000
        cn-exp                         4.000000
        max-rad                        5.000000


          ...................................................
          :                      SETUP                      :
          :.................................................:
          :  # basis functions                 122          :
          :  # atomic orbitals                 122          :
          :  # shells                           76          :
          :  # electrons                       140          :
          :  max. iterations                   250          :
          :  Hamiltonian                  GFN2-xTB          :
          :  restarted?                      false          :
          :  GBSA solvation                  false          :
          :  PC potential                    false          :
          :  electronic temp.          300.0000000     K    :
          :  accuracy                    1.0000000          :
          :  -> integral cutoff          0.2500000E+02      :
          :  -> integral neglect         0.1000000E-07      :
          :  -> SCF convergence          0.1000000E-05 Eh   :
          :  -> wf. convergence          0.1000000E-03 e    :
          :  Broyden damping             0.4000000          :
          ...................................................

 iter      E             dE          RMSdq      gap      omega  full diag
   1    -81.5524868 -0.815525E+02  0.440E+00    5.12       0.0  T
   2    -81.8417572 -0.289270E+00  0.239E+00    5.92       1.0  T
   3    -81.8473181 -0.556089E-02  0.117E+00    5.62       1.0  T
   4    -81.8486421 -0.132407E-02  0.237E-01    5.65       1.0  T
   5    -81.8495094 -0.867240E-03  0.926E-02    5.58       1.0  T
   6    -81.8495343 -0.249546E-04  0.271E-02    5.60       1.0  T
   7    -81.8495390 -0.469249E-05  0.767E-03    5.60       1.8  T
   8    -81.8495393 -0.260363E-06  0.269E-03    5.60       5.1  T
   9    -81.8495393 -0.176452E-07  0.942E-04    5.59      14.6  T
  10    -81.8495393 -0.679269E-08  0.179E-04    5.59      76.9  T

   *** convergence criteria satisfied after 10 iterations ***

         #    Occupation            Energy/Eh            Energy/eV
      -------------------------------------------------------------
         1        2.0000           -0.7951461             -21.6370
       ...           ...                  ...                  ...
        64        2.0000           -0.5005165             -13.6197
        65        2.0000           -0.4999958             -13.6056
        66        2.0000           -0.4969635             -13.5231
        67        2.0000           -0.4958298             -13.4922
        68        2.0000           -0.4916751             -13.3792
        69        2.0000           -0.4909401             -13.3592
        70        2.0000           -0.4847520             -13.1908 (HOMO)
        71                         -0.2791419              -7.5958 (LUMO)
        72                         -0.2708010              -7.3689
        73                         -0.2650537              -7.2125
        74                         -0.2608260              -7.0974
        75                         -0.1412365              -3.8432
       ...                                ...                  ...
       122                          0.5564800              15.1426
      -------------------------------------------------------------
                  HL-Gap            0.2056101 Eh            5.5949 eV
             Fermi-level           -0.3819469 Eh          -10.3933 eV

 SCC (total)                   0 d,  0 h,  0 min,  0.072 sec
 SCC setup                      ...        0 min,  0.000 sec (  0.397%)
 Dispersion                     ...        0 min,  0.001 sec (  0.807%)
 classical contributions        ...        0 min,  0.000 sec (  0.251%)
 integral evaluation            ...        0 min,  0.008 sec ( 10.701%)
 iterations                     ...        0 min,  0.036 sec ( 49.653%)
 molecular gradient             ...        0 min,  0.027 sec ( 37.824%)
 printout                       ...        0 min,  0.000 sec (  0.351%)

         :::::::::::::::::::::::::::::::::::::::::::::::::::::
         ::                     SUMMARY                     ::
         :::::::::::::::::::::::::::::::::::::::::::::::::::::
         :: total energy             -80.932994761428 Eh    ::
         :: gradient norm              0.000179204837 Eh/a0 ::
         :: HOMO-LUMO gap              5.594935825807 eV    ::
         ::.................................................::
         :: SCC energy               -81.849539318447 Eh    ::
         :: -> isotropic ES            0.290293757237 Eh    ::
         :: -> anisotropic ES         -0.026549856946 Eh    ::
         :: -> anisotropic XC          0.020562193855 Eh    ::
         :: -> dispersion             -0.043742215764 Eh    ::
         :: repulsion energy           0.915196479066 Eh    ::
         :: add. restraining           0.000000000000 Eh    ::
         :: total charge               1.000000000000 e     ::
         :::::::::::::::::::::::::::::::::::::::::::::::::::::

           ------------------------------------------------- 
          |                Numerical Hessian                |
           ------------------------------------------------- 
step length          :   0.00500
SCC accuracy         :   0.30000
Hessian scale factor :   1.00000
frozen atoms in %    :   0.00000    0
RMS gradient         :   0.00018
estimated CPU  time      0.24 min
estimated wall time      0.24 min

writing file <hessian>.

 projected vibrational frequencies (cm⁻¹)
eigval :       -0.00    -0.00    -0.00     0.00     0.00     0.00
eigval :      -58.50     1.90    12.33    14.11    21.44    30.14
eigval :       33.31    39.14    42.33    48.67    54.44    58.31
eigval :       66.11    72.18    79.77    84.30    87.05    94.92
eigval :      100.83   104.08   124.94   132.10   141.22   157.83
eigval :      181.91   189.94   196.11   202.12   275.41   286.25
eigval :      289.31   311.87   312.70   328.77   339.80   367.01
eigval :      384.70   396.31   420.38   431.49   445.25   454.42
eigval :      461.53   463.46   469.04   470.63   480.82   482.21
eigval :      484.80   489.72   496.66   509.78   526.50   542.46
eigval :      547.92   556.38   563.87   629.54   668.64   674.34
eigval :      676.77   678.29   727.61   737.21   768.75   786.70
eigval :      907.33   927.05   941.83   961.80   971.40   972.64
eigval :      994.00   999.89  1007.27  1016.77  1018.78  1025.94
eigval :     1026.88  1037.37  1040.25  1079.86  1082.73  1090.66
eigval :     1093.88  1097.31  1106.36  1128.44  1161.12  1221.41
eigval :     1248.81  1285.67  1316.80  1323.99  1350.18  1351.92
eigval :     1355.74  1356.83  1361.19  1384.21  1400.20  1407.10
eigval :     1427.37  1437.01  1441.35  1443.95  1451.64  1454.72
eigval :     1455.12  1456.23  1462.56  1467.63  1470.91  1481.83
eigval :     1482.94  1496.50  1498.10  1507.98  1517.41  1660.97
eigval :     1694.20  1717.20  1727.83  2885.97  2981.81  2988.10
eigval :     3028.63  3036.70  3040.25  3042.53  3045.68  3048.94
eigval :     3052.77  3053.92  3061.93  3065.33  3142.78  3235.38
eigval :     3268.06  3401.33  3492.87  3492.93  3503.37  3503.61
eigval :     3508.36  3519.45  3519.83  3538.59  3557.03  3557.82
eigval :     3569.39  3570.29  3574.97
           -------------------------------------------------
          |                Property Printout                |
           -------------------------------------------------

    * Orbital Energies and Occupations

         #    Occupation            Energy/Eh            Energy/eV
      -------------------------------------------------------------
         1        2.0000           -0.7951460             -21.6370
       ...           ...                  ...                  ...
        58        2.0000           -0.5119814             -13.9317
        59        2.0000           -0.5113210             -13.9138
        60        2.0000           -0.5079474             -13.8220
        61        2.0000           -0.5032305             -13.6936
        62        2.0000           -0.5023817             -13.6705
        63        2.0000           -0.5007035             -13.6248
        64        2.0000           -0.5005182             -13.6198
        65        2.0000           -0.4999957             -13.6056
        66        2.0000           -0.4969656             -13.5231
        67        2.0000           -0.4958320             -13.4923
        68        2.0000           -0.4916756             -13.3792
        69        2.0000           -0.4909408             -13.3592
        70        2.0000           -0.4847538             -13.1908 (HOMO)
        71                         -0.2791427              -7.5959 (LUMO)
        72                         -0.2707996              -7.3688
        73                         -0.2650557              -7.2125
        74                         -0.2608299              -7.0975
        75                         -0.1412358              -3.8432
        76                         -0.1083031              -2.9471
        77                         -0.0977801              -2.6607
        78                         -0.0844836              -2.2989
        79                         -0.0735877              -2.0024
        80                         -0.0712836              -1.9397
        81                         -0.0650096              -1.7690
       ...                                ...                  ...
       122                          0.5564772              15.1425
      -------------------------------------------------------------
                  HL-Gap            0.2056111 Eh            5.5950 eV
             Fermi-level           -0.3819483 Eh          -10.3933 eV

     #   Z          covCN         q      C6AA      α(0)
     1   8 O        1.655    -0.453    21.904     6.318
     2   6 C        3.673     0.073    19.593     6.344
     3   1 H        0.924     0.057     2.229     2.335
     4   1 H        0.923     0.041     2.434     2.440
     5   6 C        3.765    -0.075    21.967     6.680
     6   1 H        0.924     0.103     1.758     2.073
     7   1 H        0.924     0.116     1.649     2.008
     8   7 N        3.624     0.159    18.563     6.399
     9   6 C        3.723    -0.108    22.685     6.802
    10   1 H        0.925     0.082     1.954     2.186
    11   1 H        0.925     0.114     1.661     2.015
    12   1 H        0.925     0.108     1.714     2.047
    13   6 C        3.740    -0.118    22.838     6.819
    14   1 H        0.925     0.082     1.963     2.191
    15   1 H        0.925     0.115     1.650     2.009
    16   1 H        0.925     0.116     1.644     2.005
    17   6 C        3.730    -0.114    22.788     6.815
    18   1 H        0.925     0.113     1.667     2.019
    19   1 H        0.925     0.084     1.933     2.174
    20   1 H        0.925     0.116     1.644     2.005
    21   1 H        0.804     0.326     0.649     1.266
    22   6 C        2.675     0.342    21.192     7.533
    23   8 O        0.861    -0.529    24.433     6.627
    24   7 N        2.644    -0.290    27.468     7.784
    25   1 H        0.860     0.205     1.079     1.627
    26   1 H        0.861     0.186     1.183     1.704
    27   7 N        2.642    -0.319    28.201     7.887
    28   1 H        0.860     0.177     1.232     1.738
    29   1 H        0.859     0.245     0.904     1.489
    30   6 C        2.675     0.346    21.130     7.522
    31   8 O        0.860    -0.521    24.251     6.603
    32   7 N        2.646    -0.288    27.438     7.780
    33   1 H        0.861     0.199     1.109     1.649
    34   1 H        0.861     0.186     1.181     1.703
    35   7 N        2.646    -0.289    27.462     7.783
    36   1 H        0.861     0.186     1.183     1.704
    37   1 H        0.861     0.199     1.109     1.649
    38   6 C        2.675     0.341    21.213     7.537
    39   8 O        0.860    -0.526    24.359     6.617
    40   7 N        2.645    -0.303    27.799     7.831
    41   1 H        0.860     0.243     0.910     1.495
    42   1 H        0.861     0.183     1.198     1.714
    43   7 N        2.645    -0.289    27.446     7.781
    44   1 H        0.861     0.187     1.176     1.699
    45   1 H        0.861     0.203     1.093     1.638
    46   6 C        2.675     0.343    21.167     7.528
    47   8 O        0.860    -0.524    24.330     6.613
    48   7 N        2.644    -0.297    27.647     7.809
    49   1 H        0.860     0.196     1.124     1.661
    50   1 H        0.860     0.180     1.212     1.725
    51   7 N        2.644    -0.318    28.197     7.886
    52   1 H        0.860     0.173     1.252     1.753
    53   1 H        0.860     0.234     0.950     1.527

 Mol. C6AA /au·bohr⁶  :      21789.041773
 Mol. C8AA /au·bohr⁸  :     454159.369439
 Mol. α(0) /au        :        220.543609


Wiberg/Mayer (AO) data.
largest (>0.10) Wiberg bond orders for each atom

 ---------------------------------------------------------------------------
     #   Z sym  total        # sym  WBO       # sym  WBO       # sym  WBO
 ---------------------------------------------------------------------------
     1   8 O    1.960 --     2 C    1.019    21 H    0.855
     2   6 C    3.966 --     1 O    1.019     5 C    0.996     3 H    0.965
                             4 H    0.961
     3   1 H    0.996 --     2 C    0.965
     4   1 H    0.998 --     2 C    0.961
     5   6 C    3.928 --     2 C    0.996     6 H    0.953     7 H    0.949
                             8 N    0.935
     6   1 H    0.989 --     5 C    0.953
     7   1 H    0.987 --     5 C    0.949
     8   7 N    3.823 --     9 C    0.958    17 C    0.958    13 C    0.955
                             5 C    0.935
     9   6 C    3.925 --    10 H    0.978    12 H    0.970    11 H    0.963
                             8 N    0.958
    10   1 H    0.993 --     9 C    0.978
    11   1 H    0.987 --     9 C    0.963
    12   1 H    0.988 --     9 C    0.970
    13   6 C    3.921 --    14 H    0.977    16 H    0.965    15 H    0.963
                             8 N    0.955
    14   1 H    0.993 --    13 C    0.977
    15   1 H    0.987 --    13 C    0.963
    16   1 H    0.986 --    13 C    0.965
    17   6 C    3.923 --    19 H    0.975    18 H    0.969    20 H    0.964
                             8 N    0.958
    18   1 H    0.987 --    17 C    0.969
    19   1 H    0.993 --    17 C    0.975
    20   1 H    0.986 --    17 C    0.964
    21   1 H    0.894 --     1 O    0.855
    22   6 C    3.959 --    23 O    1.488    27 N    1.241    24 N    1.216
    23   8 O    1.910 --    22 C    1.488    27 N    0.140    24 N    0.133
    24   7 N    3.329 --    22 C    1.216    26 H    0.947    25 H    0.941
                            23 O    0.133
    25   1 H    0.958 --    24 N    0.941
    26   1 H    0.965 --    24 N    0.947
    27   7 N    3.321 --    22 C    1.241    28 H    0.948    29 H    0.865
                            23 O    0.140
    28   1 H    0.969 --    27 N    0.948
    29   1 H    0.940 --    27 N    0.865
    30   6 C    3.959 --    31 O    1.538    32 N    1.208    35 N    1.207
    31   8 O    1.895 --    30 C    1.538    32 N    0.144    35 N    0.144
    32   7 N    3.325 --    30 C    1.208    34 H    0.947    33 H    0.943
                            31 O    0.144
    33   1 H    0.960 --    32 N    0.943
    34   1 H    0.965 --    32 N    0.947
    35   7 N    3.324 --    30 C    1.207    36 H    0.947    37 H    0.943
                            31 O    0.144
    36   1 H    0.965 --    35 N    0.947
    37   1 H    0.960 --    35 N    0.943
    38   6 C    3.960 --    39 O    1.472    40 N    1.264    43 N    1.216
    39   8 O    1.925 --    38 C    1.472    40 N    0.141    43 N    0.129
    40   7 N    3.351 --    38 C    1.264    42 H    0.947    41 H    0.871
                            39 O    0.141
    41   1 H    0.941 --    40 N    0.871
    42   1 H    0.966 --    40 N    0.947
    43   7 N    3.329 --    38 C    1.216    44 H    0.946    45 H    0.940
                            39 O    0.129
    44   1 H    0.965 --    43 N    0.946
    45   1 H    0.959 --    43 N    0.940
    46   6 C    3.959 --    47 O    1.538    51 N    1.221    48 N    1.193
    47   8 O    1.898 --    46 C    1.538    51 N    0.146    48 N    0.139
    48   7 N    3.305 --    46 C    1.193    50 H    0.948    49 H    0.944
                            47 O    0.139
    49   1 H    0.961 --    48 N    0.944
    50   1 H    0.967 --    48 N    0.948
    51   7 N    3.310 --    46 C    1.221    52 H    0.950    53 H    0.884
                            47 O    0.146
    52   1 H    0.970 --    51 N    0.950
    53   1 H    0.945 --    51 N    0.884
 ---------------------------------------------------------------------------

Topologies differ in total number of bonds
Writing topology from bond orders to xtbtopo.mol

molecular dipole:
                 x           y           z       tot (Debye)
 q only:       -0.233      -0.260       1.659
   full:       -0.549      -0.888       1.652       4.968
molecular quadrupole (traceless):
                xx          xy          yy          xz          yz          zz
 q only:        0.184       0.850     -24.500      24.271      33.532      24.316
  q+dip:        1.179      -1.760     -29.637      29.242      41.355      28.458
   full:        0.856      -1.916     -29.102      29.107      41.181      28.246

           -------------------------------------------------
          |               Frequency Printout                |
           -------------------------------------------------
 projected vibrational frequencies (cm⁻¹)
eigval :       -0.00    -0.00    -0.00     0.00     0.00     0.00
eigval :      -58.50     1.90    12.33    14.11    21.44    30.14
eigval :       33.31    39.14    42.33    48.67    54.44    58.31
eigval :       66.11    72.18    79.77    84.30    87.05    94.92
eigval :      100.83   104.08   124.94   132.10   141.22   157.83
eigval :      181.91   189.94   196.11   202.12   275.41   286.25
eigval :      289.31   311.87   312.70   328.77   339.80   367.01
eigval :      384.70   396.31   420.38   431.49   445.25   454.42
eigval :      461.53   463.46   469.04   470.63   480.82   482.21
eigval :      484.80   489.72   496.66   509.78   526.50   542.46
eigval :      547.92   556.38   563.87   629.54   668.64   674.34
eigval :      676.77   678.29   727.61   737.21   768.75   786.70
eigval :      907.33   927.05   941.83   961.80   971.40   972.64
eigval :      994.00   999.89  1007.27  1016.77  1018.78  1025.94
eigval :     1026.88  1037.37  1040.25  1079.86  1082.73  1090.66
eigval :     1093.88  1097.31  1106.36  1128.44  1161.12  1221.41
eigval :     1248.81  1285.67  1316.80  1323.99  1350.18  1351.92
eigval :     1355.74  1356.83  1361.19  1384.21  1400.20  1407.10
eigval :     1427.37  1437.01  1441.35  1443.95  1451.64  1454.72
eigval :     1455.12  1456.23  1462.56  1467.63  1470.91  1481.83
eigval :     1482.94  1496.50  1498.10  1507.98  1517.41  1660.97
eigval :     1694.20  1717.20  1727.83  2885.97  2981.81  2988.10
eigval :     3028.63  3036.70  3040.25  3042.53  3045.68  3048.94
eigval :     3052.77  3053.92  3061.93  3065.33  3142.78  3235.38
eigval :     3268.06  3401.33  3492.87  3492.93  3503.37  3503.61
eigval :     3508.36  3519.45  3519.83  3538.59  3557.03  3557.82
eigval :     3569.39  3570.29  3574.97
 reduced masses (amu)
   1: 12.69   2: 12.53   3: 12.70   4: 12.64   5: 12.73   6: 12.54   7:  3.44   8: 11.37
   9: 12.34  10: 12.18  11: 12.12  12: 12.03  13: 11.91  14: 12.48  15: 12.45  16: 12.28
  17: 11.27  18: 12.66  19: 12.99  20: 12.89  21: 12.16  22: 13.05  23: 13.28  24: 12.20
  25: 12.47  26: 13.14  27: 11.56  28: 12.57  29: 12.43  30: 12.56  31: 12.61  32:  4.06
  33: 11.75  34: 11.96  35:  4.24  36:  6.41  37:  4.02  38:  6.85  39:  3.42  40:  2.94
  41:  2.80  42:  1.81  43:  7.00  44:  3.11  45:  3.18  46:  8.67  47:  1.39  48:  8.51
  49:  8.13  50:  8.46  51:  6.00  52:  1.71  53:  4.80  54:  3.07  55:  7.77  56:  6.40
  57:  5.13  58:  2.66  59: 10.18  60: 10.86  61:  8.66  62: 10.85  63: 11.95  64:  3.33
  65: 10.91  66: 11.90  67: 11.80  68: 10.60  69:  2.52  70:  2.23  71:  9.26  72:  2.40
  73:  7.39  74:  7.76  75:  5.33  76:  4.91  77:  5.17  78:  4.93  79:  8.62  80:  7.60
  81:  9.50  82:  8.13  83:  9.07  84:  5.73  85:  9.34  86:  4.97  87:  5.52  88:  9.92
  89:  9.29  90:  7.27  91:  8.16  92:  7.66  93:  3.86  94:  7.46  95:  2.89  96:  5.02
  97:  7.66  98:  8.19  99:  5.07 100:  4.15 101:  4.87 102:  5.51 103:  5.87 104:  4.30
 105:  4.68 106:  4.59 107:  2.54 108:  2.52 109:  2.25 110:  2.20 111:  1.73 112:  3.30
 113:  1.76 114:  3.16 115:  3.06 116:  1.93 117:  2.75 118:  1.84 119:  1.67 120:  1.71
 121:  1.70 122:  7.84 123:  8.11 124:  8.71 125:  9.73 126: 12.33 127: 12.68 128: 12.81
 129: 12.83 130:  1.76 131:  1.68 132:  1.78 133:  1.73 134:  1.67 135:  1.57 136:  1.54
 137:  1.83 138:  1.80 139:  1.93 140:  1.78 141:  1.73 142:  1.75 143:  1.82 144:  1.78
 145:  1.76 146:  1.88 147:  1.45 148:  1.45 149:  1.45 150:  1.44 151:  1.46 152:  1.89
 153:  1.91 154:  1.91 155:  2.17 156:  2.18 157:  2.19 158:  2.19 159:  2.18
 IR intensities (km·mol⁻¹)
   1:  2.04   2:  1.46   3:  2.42   4:  1.02   5:  1.10   6:  1.32   7:  3.74   8:  0.01
   9:  0.60  10:  1.51  11:  1.27  12:  2.07  13:  2.66  14:  0.88  15:  4.37  16:  6.53
  17:  0.77  18:  0.44  19:  0.54  20:  1.55  21:  4.55  22: 11.42  23:  6.80  24:  5.70
  25:  1.43  26:  3.49  27: 20.76  28: 21.17  29:  7.43  30:  4.71  31: 12.74  32:158.95
  33: 11.68  34: 85.01  35:  4.41  36:122.69  37:399.07  38: 28.83  39:101.71  40:  3.73
  41:169.97  42:  1.03  43:  8.51  44:269.42  45:195.50  46:  0.58  47:  1.36  48:  2.34
  49: 19.70  50: 25.79  51: 14.65  52:  9.29  53: 87.24  54:157.07  55: 13.44  56: 36.19
  57: 16.46  58: 33.15  59: 23.62  60: 16.84  61: 16.46  62:  2.27  63: 43.15  64:166.07
  65: 17.29  66: 27.22  67: 30.15  68: 87.37  69: 53.64  70:208.48  71:  1.19  72:487.36
  73: 10.72  74:  7.67  75:  1.75  76:  8.48  77:  2.20  78:  0.33  79:  0.10  80: 25.45
  81: 20.77  82: 32.42  83:  5.62  84: 23.83  85:  4.37  86:  7.42  87: 10.54  88:  1.90
  89:  0.22  90: 14.85  91:  4.76  92:  4.56  93: 23.11  94: 28.57  95:  8.83  96: 10.48
  97:  3.92  98: 16.70  99:  0.10 100: 18.35 101: 36.62 102: 26.15 103:308.69 104: 28.60
 105:137.38 106: 17.92 107: 24.95 108: 13.87 109:  7.66 110:  1.20 111:  0.07 112: 12.48
 113:  3.30 114:  4.20 115:  8.68 116:  8.16 117: 11.41 118:  4.93 119: 15.17 120:  7.86
 121: 19.17 122:140.94 123:947.70 124:377.40 125:478.75 126:276.53 127:****** 128:******
 129:592.66 130: 38.58 131: 24.98 132: 32.79 133:  0.51 134:  6.05 135:  4.77 136:  9.51
 137:  7.97 138:  4.14 139: 32.18 140: 19.75 141:  8.21 142:  1.91 143:529.85 144:******
 145:533.57 146:258.34 147: 14.47 148: 26.08 149: 21.64 150: 42.12 151:  8.89 152:  9.80
 153: 13.30 154: 20.42 155:  9.19 156: 17.46 157: 13.45 158: 21.02 159: 11.63
 Raman intensities (amu)
Molecule has no symmetry elements
It seems to be the C1 point group
   1:  0.00   2:  0.00   3:  0.00   4:  0.00   5:  0.00   6:  0.00   7:  0.00   8:  0.00
   9:  0.00  10:  0.00  11:  0.00  12:  0.00  13:  0.00  14:  0.00  15:  0.00  16:  0.00
  17:  0.00  18:  0.00  19:  0.00  20:  0.00  21:  0.00  22:  0.00  23:  0.00  24:  0.00
  25:  0.00  26:  0.00  27:  0.00  28:  0.00  29:  0.00  30:  0.00  31:  0.00  32:  0.00
  33:  0.00  34:  0.00  35:  0.00  36:  0.00  37:  0.00  38:  0.00  39:  0.00  40:  0.00
  41:  0.00  42:  0.00  43:  0.00  44:  0.00  45:  0.00  46:  0.00  47:  0.00  48:  0.00
  49:  0.00  50:  0.00  51:  0.00  52:  0.00  53:  0.00  54:  0.00  55:  0.00  56:  0.00
  57:  0.00  58:  0.00  59:  0.00  60:  0.00  61:  0.00  62:  0.00  63:  0.00  64:  0.00
  65:  0.00  66:  0.00  67:  0.00  68:  0.00  69:  0.00  70:  0.00  71:  0.00  72:  0.00
  73:  0.00  74:  0.00  75:  0.00  76:  0.00  77:  0.00  78:  0.00  79:  0.00  80:  0.00
  81:  0.00  82:  0.00  83:  0.00  84:  0.00  85:  0.00  86:  0.00  87:  0.00  88:  0.00
  89:  0.00  90:  0.00  91:  0.00  92:  0.00  93:  0.00  94:  0.00  95:  0.00  96:  0.00
  97:  0.00  98:  0.00  99:  0.00 100:  0.00 101:  0.00 102:  0.00 103:  0.00 104:  0.00
 105:  0.00 106:  0.00 107:  0.00 108:  0.00 109:  0.00 110:  0.00 111:  0.00 112:  0.00
 113:  0.00 114:  0.00 115:  0.00 116:  0.00 117:  0.00 118:  0.00 119:  0.00 120:  0.00
 121:  0.00 122:  0.00 123:  0.00 124:  0.00 125:  0.00 126:  0.00 127:  0.00 128:  0.00
 129:  0.00 130:  0.00 131:  0.00 132:  0.00 133:  0.00 134:  0.00 135:  0.00 136:  0.00
 137:  0.00 138:  0.00 139:  0.00 140:  0.00 141:  0.00 142:  0.00 143:  0.00 144:  0.00
 145:  0.00 146:  0.00 147:  0.00 148:  0.00 149:  0.00 150:  0.00 151:  0.00 152:  0.00
 153:  0.00 154:  0.00 155:  0.00 156:  0.00 157:  0.00 158:  0.00 159:  0.00
 output can be read by thermo (or use thermo option).
 writing <g98.out> molden fake output.
 recommended (thermochemical) frequency scaling factor: 1.0
           -------------------------------------------------
          |             Thermodynamic Functions             |
           -------------------------------------------------

c1  symmetry found (for desy threshold:  0.10E+00) used in thermo

          ...................................................
          :                      SETUP                      :
          :.................................................:
          :  # frequencies                         152      :
          :  # imaginary freq.                       1      :
          :  linear?                             false      :
          :  only rotor calc.                    false      :
          :  symmetry                               c1      :
          :  rotational number                       1      :
          :  scaling factor                  1.0000000      :
          :  rotor cutoff                   50.0000000 cm⁻¹ :
          :  imag. cutoff                  -20.0000000 cm⁻¹ :
          :.................................................:

    mode    ω/cm⁻¹     T·S(HO)/kcal·mol⁻¹    T·S(FR)/kcal·mol⁻¹   T·S(vib)
   ------------------------------------------------------------------------
       1      1.90    -3.37130 (  0.00%)    -2.02403 (100.00%)    -2.02403
       2     12.33    -2.26449 (  0.37%)    -1.47120 ( 99.63%)    -1.47413
       3     14.11    -2.18462 (  0.63%)    -1.43127 ( 99.37%)    -1.43602
       4     21.44    -1.93677 (  3.27%)    -1.30731 ( 96.73%)    -1.32790
       5     30.14    -1.73526 ( 11.67%)    -1.20644 ( 88.33%)    -1.26813
       6     33.31    -1.67610 ( 16.46%)    -1.17681 ( 83.54%)    -1.25900
       7     39.14    -1.58087 ( 27.29%)    -1.12908 ( 72.71%)    -1.25239
       8     42.33    -1.53453 ( 33.94%)    -1.10583 ( 66.06%)    -1.25134
       9     48.67    -1.45217 ( 47.31%)    -1.06450 ( 52.69%)    -1.24791
      10     54.44    -1.38611 ( 58.43%)    -1.03130 ( 41.57%)    -1.23863
      11     58.31    -1.34574 ( 64.91%)    -1.01099 ( 35.09%)    -1.22826
      12     66.11    -1.27191 ( 75.34%)    -0.97380 ( 24.66%)    -1.19841
      13     72.18    -1.22030 ( 81.29%)    -0.94775 ( 18.71%)    -1.16930
      14     79.77    -1.16172 ( 86.63%)    -0.91814 ( 13.37%)    -1.12915
      15     84.30    -1.12947 ( 88.99%)    -0.90180 ( 11.01%)    -1.10439
      16     87.05    -1.11068 ( 90.19%)    -0.89227 (  9.81%)    -1.08924
      17     94.92    -1.06025 ( 92.85%)    -0.86665 (  7.15%)    -1.04641
      18    100.83    -1.02509 ( 94.30%)    -0.84874 (  5.70%)    -1.01504
      19    104.08    -1.00669 ( 94.94%)    -0.83935 (  5.06%)    -0.99823
      20    124.94    -0.90118 ( 97.50%)    -0.78525 (  2.50%)    -0.89828
      21    132.10    -0.86919 ( 97.99%)    -0.76874 (  2.01%)    -0.86717
      22    141.22    -0.83103 ( 98.45%)    -0.74896 (  1.55%)    -0.82976
      23    157.83    -0.76792 ( 99.00%)    -0.71601 (  1.00%)    -0.76740
      24    181.91    -0.68835 ( 99.43%)    -0.67395 (  0.57%)    -0.68827
      25    189.94    -0.66439 ( 99.52%)    -0.66115 (  0.48%)    -0.66438
      26    196.11    -0.64679 ( 99.58%)    -0.65169 (  0.42%)    -0.64681
      27    202.12    -0.63020 ( 99.63%)    -0.64274 (  0.37%)    -0.63024
      28    275.41    -0.46572 ( 99.89%)    -0.55109 (  0.11%)    -0.46581
      29    286.25    -0.44603 ( 99.91%)    -0.53965 (  0.09%)    -0.44612
      30    289.31    -0.44066 ( 99.91%)    -0.53650 (  0.09%)    -0.44075
   ------------------------------------------------------------------------

   temp. (K)  partition function   enthalpy   heat capacity  entropy
                                   cal/mol     cal/K/mol   cal/K/mol   J/K/mol
 298.15  VIB  0.374E+19            19436.742    102.375    131.052
         ROT  0.149E+08              888.752      2.981     35.807
         INT  0.558E+26            20325.494    105.356    166.859
         TR   0.618E+28             1481.254      4.968     43.384
         TOT                       21806.7484   110.3240   210.2431   879.6573

       T/K    H(0)-H(T)+PV         H(T)/Eh          T*S/Eh         G(T)/Eh
   ------------------------------------------------------------------------
    298.15    0.347513E-01    0.473081E+00    0.998933E-01    0.373188E+00
   ------------------------------------------------------------------------

         :::::::::::::::::::::::::::::::::::::::::::::::::::::
         ::                  THERMODYNAMIC                  ::
         :::::::::::::::::::::::::::::::::::::::::::::::::::::
         :: total free energy         -80.559806929809 Eh   ::
         ::.................................................::
         :: total energy              -80.932994761815 Eh   ::
         :: zero point energy           0.438329866084 Eh   ::
         :: G(RRHO) w/o ZPVE           -0.065142034077 Eh   ::
         :: G(RRHO) contrib.            0.373187832007 Eh   ::
         :::::::::::::::::::::::::::::::::::::::::::::::::::::
imag cut-off (cm-1) :    5.00
 found            1  significant imaginary frequency
 writing imag mode distorted coords to xtbhess.xyz
 for further optimization.

           -------------------------------------------------
          | TOTAL ENERGY              -80.932994761815 Eh   |
          | TOTAL ENTHALPY            -80.459913630202 Eh   |
          | TOTAL FREE ENERGY         -80.559806929809 Eh   |
          | GRADIENT NORM               0.000179100659 Eh/α |
          | HOMO-LUMO GAP               5.594964098582 eV   |
           -------------------------------------------------

------------------------------------------------------------------------
 * finished run on 2024/01/10 at 18:30:34.471     
------------------------------------------------------------------------
 total:
 * wall-time:     0 d,  0 h,  0 min, 14.331 sec
 *  cpu-time:     0 d,  0 h,  0 min, 14.282 sec
 * ratio c/w:     0.997 speedup
 SCF:
 * wall-time:     0 d,  0 h,  0 min,  0.073 sec
 *  cpu-time:     0 d,  0 h,  0 min,  0.058 sec
 * ratio c/w:     0.792 speedup
 analytical hessian:
 * wall-time:     0 d,  0 h,  0 min, 14.231 sec
 *  cpu-time:     0 d,  0 h,  0 min, 14.197 sec
 * ratio c/w:     0.998 speedup

