 Entering Gaussian System
 *********************************************
 Gaussian 98:
 frequency output generated by the xtb code
 *********************************************
                         Standard orientation:
 --------------------------------------------------------------------
  Center     Atomic     Atomic              Coordinates (Angstroms)
  Number     Number      Type              X           Y           Z
 --------------------------------------------------------------------
    1          8             0       -1.921908   -1.228141   -0.605587
    2          6             0       -0.855015   -1.105073   -1.509017
    3          1             0       -1.058805   -1.802171   -2.325301
    4          1             0       -0.834130   -0.092658   -1.934286
    5          6             0        0.523767   -1.329019   -0.882019
    6          1             0        0.621464   -0.686199   -0.002862
    7          1             0        1.289939   -1.024366   -1.596381
    8          7             0        0.844820   -2.712496   -0.433623
    9          6             0       -0.066856   -3.123393    0.647363
   10          1             0        0.046966   -2.431684    1.480677
   11          1             0        0.181014   -4.129397    0.979678
   12          1             0       -1.097485   -3.097132    0.300569
   13          6             0        2.220148   -2.695106    0.099067
   14          1             0        2.240232   -2.062465    0.985339
   15          1             0        2.905017   -2.277706   -0.635933
   16          1             0        2.530828   -3.702150    0.367384
   17          6             0        0.769241   -3.665508   -1.549727
   18          1             0       -0.255770   -3.763871   -1.899557
   19          1             0        1.115808   -4.645190   -1.224914
   20          1             0        1.398840   -3.324001   -2.369399
   21          1             0       -1.773527   -0.562896    0.108900
   22          6             0        2.004882    0.383493    2.240193
   23          8             0        1.179553   -0.518983    2.075705
   24          7             0        1.946085    1.188318    3.327007
   25          1             0        1.283746    0.977061    4.051952
   26          1             0        2.651389    1.876161    3.516560
   27          7             0        3.028850    0.594912    1.391435
   28          1             0        3.573066    1.433822    1.490281
   29          1             0        2.994175    0.201787    0.453862
   30          6             0        3.393458    0.942556   -1.991411
   31          8             0        3.248477   -0.135432   -1.414703
   32          7             0        4.269470    1.077077   -3.020942
   33          1             0        4.912070    0.323753   -3.192182
   34          1             0        4.500978    1.978814   -3.396961
   35          7             0        2.687492    2.037466   -1.657878
   36          1             0        2.767560    2.885191   -2.189307
   37          1             0        1.930563    1.967257   -0.983317
   38          6             0       -0.702425    1.765930    0.396802
   39          8             0        0.494324    1.847171    0.142983
   40          7             0       -1.637127    2.567852   -0.144089
   41          1             0       -1.360719    3.350829   -0.707522
   42          1             0       -2.602319    2.456056    0.136871
   43          7             0       -1.213113    0.761058    1.183851
   44          1             0       -2.147029    0.917245    1.545653
   45          1             0       -0.537314    0.301208    1.787486
   46          6             0       -4.938189    0.770722    0.425076
   47          8             0       -3.994016    1.366587    0.932772
   48          7             0       -4.766417   -0.239522   -0.458057
   49          1             0       -3.837524   -0.603299   -0.618016
   50          1             0       -5.546841   -0.782387   -0.779654
   51          7             0       -6.219555    1.102073    0.707886
   52          1             0       -7.002505    0.673566    0.249960
   53          1             0       -6.386879    1.891368    1.305816
 --------------------------------------------------------------------
     1 basis functions        1 primitive gaussians
     1 alpha electrons        1 beta electrons

 Harmonic frequencies (cm**-1), IR intensities (km*mol⁻¹),
 Raman scattering activities (A**4/amu), Raman depolarization ratios,
 reduced masses (AMU), force constants (mDyne/A) and normal coordinates:
                      1                      2                      3
                        a                      a                      a 
 Frequencies --    19.7080                31.0815                34.0225
 Red. masses --    12.4870                12.1602                12.3155
 Frc consts  --     0.0000                 0.0000                 0.0000
 IR Inten    --     1.0574                 0.1443                 3.4555
 Raman Activ --     0.0000                 0.0000                 0.0000
 Depolar     --     0.0000                 0.0000                 0.0000
 Atom AN      X      Y      Z        X      Y      Z        X      Y      Z
   1   8    -0.01  -0.07   0.19    -0.01   0.20  -0.17    -0.08   0.05   0.11
   2   6    -0.04  -0.03   0.13     0.06   0.16  -0.07    -0.09   0.06   0.07
   3   1    -0.02  -0.01   0.04     0.02   0.06  -0.03    -0.03   0.02   0.02
   4   1    -0.02  -0.01   0.04     0.04   0.05  -0.01    -0.03   0.02   0.03
   5   6    -0.02  -0.02   0.09     0.01   0.07   0.00    -0.08   0.05   0.05
   6   1    -0.00  -0.01   0.03     0.01   0.03  -0.00    -0.02   0.01   0.02
   7   1    -0.01   0.00   0.02     0.02  -0.00   0.01    -0.02   0.02   0.01
   8   7     0.03  -0.02   0.06    -0.13   0.06   0.06    -0.09   0.05   0.03
   9   6     0.08  -0.04   0.09    -0.15   0.18   0.08    -0.05   0.06   0.07
  10   1     0.03  -0.02   0.03    -0.02   0.06   0.02    -0.00   0.02   0.02
  11   1     0.03  -0.01   0.02    -0.07   0.05   0.03    -0.01   0.02   0.02
  12   1     0.02  -0.02   0.04    -0.04   0.08   0.02    -0.02   0.02   0.03
  13   6     0.05  -0.00  -0.01    -0.12  -0.05   0.05    -0.06   0.02  -0.02
  14   1     0.02  -0.00  -0.00    -0.02  -0.00   0.00    -0.00   0.00  -0.01
  15   1     0.00   0.00  -0.01    -0.02  -0.04   0.01    -0.02   0.01  -0.01
  16   1     0.02   0.00  -0.01    -0.06  -0.02   0.03    -0.02   0.00  -0.01
  17   6    -0.01  -0.00   0.04    -0.22   0.02   0.09    -0.14   0.05   0.03
  18   1    -0.01  -0.01   0.03    -0.07   0.03   0.03    -0.05   0.02   0.02
  19   1     0.01   0.00   0.00    -0.09   0.00   0.04    -0.04   0.01   0.00
  20   1    -0.02   0.01   0.00    -0.06  -0.02   0.02    -0.05   0.01   0.00
  21   1    -0.00  -0.02   0.05    -0.01   0.04  -0.03    -0.02   0.02   0.02
  22   6     0.10  -0.04   0.02     0.11   0.05  -0.02     0.10  -0.09   0.08
  23   8     0.10  -0.04   0.06     0.11   0.07   0.02    -0.01   0.02   0.05
  24   7     0.18  -0.07   0.04     0.14   0.10  -0.05     0.32  -0.24   0.20
  25   1     0.06  -0.02   0.02     0.03   0.04  -0.01     0.10  -0.07   0.06
  26   1     0.05  -0.02   0.00     0.04   0.03  -0.02     0.11  -0.09   0.06
  27   7     0.05  -0.03  -0.04     0.12   0.00  -0.03     0.05  -0.11   0.01
  28   1     0.01  -0.01  -0.02     0.04  -0.00  -0.02     0.04  -0.05   0.02
  29   1    -0.00   0.00  -0.01     0.03  -0.01  -0.00    -0.02   0.00  -0.01
  30   6    -0.17   0.06  -0.09     0.01  -0.08  -0.01    -0.01   0.07   0.01
  31   8    -0.12   0.06  -0.10     0.05  -0.09   0.01    -0.13   0.06  -0.06
  32   7    -0.27   0.09  -0.17    -0.04  -0.09  -0.05    -0.01   0.05   0.00
  33   1    -0.07   0.03  -0.06    -0.01  -0.02  -0.02    -0.03  -0.00  -0.02
  34   1    -0.08   0.03  -0.05    -0.02  -0.03  -0.02     0.02   0.01   0.02
  35   7    -0.17   0.05  -0.02     0.01  -0.09   0.00     0.14   0.14   0.11
  36   1    -0.06   0.02  -0.00    -0.00  -0.03  -0.00     0.05   0.04   0.04
  37   1    -0.03   0.01   0.01     0.01  -0.02   0.01     0.03   0.04   0.02
  38   6     0.03  -0.03   0.16     0.01   0.05   0.11     0.05   0.07  -0.12
  39   8     0.04  -0.02   0.20    -0.01   0.08   0.05     0.08   0.13  -0.00
  40   7     0.03  -0.03   0.17    -0.02   0.11   0.28     0.05  -0.10  -0.39
  41   1     0.01  -0.01   0.04    -0.02   0.03   0.07     0.02  -0.03  -0.11
  42   1     0.01  -0.02   0.03    -0.01   0.00   0.06     0.01  -0.03  -0.12
  43   7     0.03  -0.04   0.16     0.07  -0.03   0.06     0.03   0.16  -0.03
  44   1     0.01  -0.01   0.04     0.02  -0.02   0.03     0.00   0.05  -0.03
  45   1     0.01  -0.01   0.04     0.03  -0.01   0.00     0.00   0.06   0.01
  46   6     0.02   0.05  -0.21     0.01  -0.17  -0.09    -0.02  -0.11  -0.07
  47   8     0.00  -0.06  -0.07    -0.00  -0.25  -0.02     0.02   0.01  -0.30
  48   7     0.06   0.01  -0.18     0.03   0.04  -0.36    -0.08  -0.22   0.04
  49   1     0.01  -0.02  -0.01     0.01   0.02  -0.11    -0.02  -0.05  -0.00
  50   1     0.01   0.03  -0.09     0.01   0.00  -0.10    -0.02  -0.09   0.06
  51   7     0.01   0.23  -0.48     0.00  -0.36   0.07    -0.00  -0.17   0.08
  52   1     0.01   0.07  -0.15     0.00  -0.06  -0.02    -0.01  -0.06   0.05
  53   1    -0.00   0.06  -0.13    -0.00  -0.12   0.05     0.01  -0.02  -0.01
                      4                      5                      6
                        a                      a                      a 
 Frequencies --    38.8296                43.6603                44.7724
 Red. masses --    12.2149                12.6447                12.5764
 Frc consts  --     0.0000                 0.0000                 0.0000
 IR Inten    --     0.2652                 4.2750                 0.0320
 Raman Activ --     0.0000                 0.0000                 0.0000
 Depolar     --     0.0000                 0.0000                 0.0000
 Atom AN      X      Y      Z        X      Y      Z        X      Y      Z
   1   8    -0.08  -0.08   0.09    -0.04  -0.04   0.08    -0.01   0.08   0.07
   2   6    -0.11  -0.06   0.03    -0.06   0.02   0.05    -0.04   0.09   0.03
   3   1    -0.04  -0.02   0.01    -0.02   0.01   0.01    -0.02   0.03   0.01
   4   1    -0.04  -0.02   0.01    -0.03   0.01   0.02    -0.02   0.03   0.02
   5   6    -0.08  -0.04  -0.04    -0.03   0.04   0.01    -0.02   0.07  -0.01
   6   1    -0.01  -0.00  -0.02    -0.00   0.01  -0.00    -0.00   0.01   0.00
   7   1    -0.03  -0.02  -0.02    -0.02   0.01  -0.01    -0.01   0.03  -0.01
   8   7    -0.07  -0.03  -0.00    -0.00   0.05   0.00    -0.02   0.06  -0.07
   9   6     0.01   0.02   0.08     0.05   0.05   0.05    -0.02   0.01  -0.08
  10   1     0.02   0.01   0.01     0.02   0.02   0.01    -0.01  -0.00  -0.02
  11   1     0.01   0.01   0.03     0.02   0.02   0.01    -0.00   0.00  -0.03
  12   1    -0.00   0.00   0.04     0.01   0.01   0.03    -0.00   0.00  -0.02
  13   6    -0.02  -0.03  -0.10     0.02   0.06  -0.06    -0.02   0.04  -0.06
  14   1     0.01   0.00  -0.03     0.02   0.02  -0.02    -0.01   0.00  -0.01
  15   1    -0.02  -0.02  -0.05    -0.00   0.02  -0.03    -0.00   0.02  -0.01
  16   1    -0.01  -0.01  -0.02     0.01   0.02  -0.02    -0.01   0.01  -0.03
  17   6    -0.15  -0.07   0.04    -0.05   0.04   0.02    -0.01   0.10  -0.11
  18   1    -0.05  -0.02   0.04    -0.02   0.01   0.02    -0.00   0.03  -0.03
  19   1    -0.04  -0.02   0.01    -0.01   0.01   0.00    -0.00   0.03  -0.04
  20   1    -0.06  -0.03  -0.01    -0.03   0.01  -0.01    -0.00   0.04  -0.02
  21   1    -0.01  -0.01   0.02    -0.01  -0.02   0.03    -0.01   0.03   0.01
  22   6     0.04   0.06  -0.15     0.13  -0.01   0.04     0.00   0.00   0.01
  23   8     0.08   0.03  -0.08     0.07   0.05   0.02    -0.00   0.01  -0.01
  24   7     0.00   0.20  -0.26     0.29  -0.13   0.14    -0.01  -0.02   0.03
  25   1    -0.00   0.07  -0.07     0.10  -0.05   0.05    -0.01  -0.01   0.00
  26   1    -0.01   0.06  -0.09     0.10  -0.06   0.05    -0.00  -0.01   0.01
  27   7     0.06  -0.01  -0.16     0.05   0.04  -0.04     0.01   0.01   0.03
  28   1     0.01   0.00  -0.07     0.03  -0.01  -0.00     0.01  -0.00   0.02
  29   1     0.02  -0.03  -0.03    -0.01   0.02  -0.02     0.01   0.00   0.01
  30   6     0.13   0.05   0.09     0.09   0.00  -0.00     0.05  -0.10  -0.02
  31   8    -0.06  -0.05  -0.16     0.06   0.01   0.00     0.10  -0.07   0.08
  32   7     0.16   0.14   0.13     0.37   0.06   0.24     0.17  -0.12   0.09
  33   1     0.00   0.02  -0.02     0.12   0.02   0.10     0.07  -0.02   0.06
  34   1     0.09   0.05   0.09     0.09   0.01   0.06     0.03  -0.04  -0.00
  35   7     0.39   0.13   0.40    -0.12  -0.07  -0.24    -0.13  -0.16  -0.25
  36   1     0.12   0.05   0.13    -0.00  -0.01  -0.05    -0.02  -0.04  -0.06
  37   1     0.07   0.02   0.06    -0.05  -0.02  -0.08    -0.03  -0.03  -0.05
  38   6    -0.03  -0.03   0.02    -0.13  -0.08  -0.09     0.03   0.12   0.07
  39   8    -0.05  -0.06  -0.08    -0.20  -0.12  -0.31     0.01   0.07  -0.03
  40   7    -0.05   0.03   0.14    -0.23  -0.13  -0.00     0.04   0.27   0.28
  41   1    -0.02  -0.00   0.02    -0.09  -0.05  -0.03     0.01   0.06   0.05
  42   1    -0.01  -0.00   0.04    -0.05  -0.04   0.04     0.01   0.05   0.05
  43   7     0.01  -0.05   0.03    -0.02  -0.04   0.05     0.03   0.09   0.03
  44   1     0.01  -0.01   0.02     0.01  -0.01   0.04     0.01   0.02   0.02
  45   1     0.01  -0.01  -0.00     0.02   0.01   0.00     0.01   0.01  -0.00
  46   6    -0.04  -0.04  -0.00    -0.06   0.04   0.02    -0.04  -0.13  -0.02
  47   8    -0.03  -0.10   0.03    -0.11  -0.07   0.23     0.00  -0.09  -0.19
  48   7    -0.08  -0.14   0.11    -0.01   0.17  -0.11    -0.11  -0.45   0.33
  49   1    -0.02  -0.05   0.04    -0.00   0.03  -0.00    -0.03  -0.12   0.08
  50   1    -0.03  -0.02   0.01     0.00   0.06  -0.07    -0.04  -0.11   0.09
  51   7    -0.03   0.13  -0.15    -0.09   0.07  -0.10    -0.02   0.10  -0.20
  52   1    -0.01   0.03  -0.03    -0.01   0.04  -0.06    -0.01  -0.02   0.01
  53   1    -0.00   0.04  -0.05    -0.03  -0.01   0.00     0.01   0.06  -0.09
                      7                      8                      9
                        a                      a                      a 
 Frequencies --    50.4484                54.4006                57.5868
 Red. masses --    11.9891                12.1802                12.2844
 Frc consts  --     0.0000                 0.0000                 0.0000
 IR Inten    --     2.6772                10.7941                 3.3826
 Raman Activ --     0.0000                 0.0000                 0.0000
 Depolar     --     0.0000                 0.0000                 0.0000
 Atom AN      X      Y      Z        X      Y      Z        X      Y      Z
   1   8     0.07  -0.03  -0.24     0.02   0.03  -0.27     0.01  -0.08   0.12
   2   6     0.09  -0.12  -0.19     0.07   0.03  -0.16    -0.05  -0.18   0.03
   3   1     0.03  -0.06  -0.04     0.03   0.01  -0.06    -0.03  -0.07   0.03
   4   1     0.03  -0.05  -0.08     0.03   0.01  -0.04    -0.02  -0.06  -0.02
   5   6     0.07  -0.08  -0.13     0.03  -0.01  -0.09    -0.02  -0.14  -0.03
   6   1     0.02   0.01  -0.06     0.01   0.01  -0.04     0.01  -0.02  -0.02
   7   1     0.03  -0.05  -0.05     0.02  -0.03  -0.02    -0.01  -0.05  -0.02
   8   7     0.03  -0.04   0.05    -0.08   0.01   0.03     0.00  -0.12   0.05
   9   6     0.02   0.13   0.10    -0.05   0.19   0.13     0.07  -0.02   0.14
  10   1     0.01   0.07   0.00     0.02   0.07   0.02     0.04   0.01   0.02
  11   1    -0.01   0.05   0.06    -0.03   0.06   0.06     0.03   0.00   0.06
  12   1     0.01   0.04   0.03    -0.02   0.07   0.05     0.01  -0.01   0.06
  13   6     0.03  -0.01   0.04    -0.04  -0.06  -0.05     0.04  -0.08  -0.05
  14   1     0.01   0.02  -0.01     0.02   0.01  -0.03     0.03  -0.01  -0.03
  15   1     0.01  -0.03   0.00    -0.01  -0.05  -0.03    -0.00  -0.03  -0.04
  16   1     0.00   0.00   0.04    -0.03  -0.02   0.01     0.02  -0.02  -0.01
  17   6    -0.01  -0.18   0.17    -0.24  -0.11   0.14    -0.09  -0.20   0.13
  18   1    -0.00  -0.05   0.05    -0.08  -0.02   0.07    -0.03  -0.07   0.06
  19   1    -0.01  -0.04   0.09    -0.08  -0.03   0.06    -0.02  -0.05   0.05
  20   1     0.00  -0.09   0.04    -0.08  -0.07   0.01    -0.05  -0.08   0.01
  21   1     0.02   0.01  -0.07    -0.00  -0.00  -0.06     0.02   0.00   0.01
  22   6     0.02  -0.05   0.07     0.03   0.01  -0.02    -0.08  -0.07  -0.08
  23   8    -0.05   0.03  -0.06     0.09  -0.04  -0.03    -0.10  -0.07  -0.10
  24   7     0.12  -0.26   0.23    -0.07   0.05  -0.06    -0.05  -0.12  -0.05
  25   1     0.03  -0.09   0.05    -0.03   0.02  -0.02    -0.01  -0.03  -0.01
  26   1     0.04  -0.09   0.09    -0.04   0.03  -0.02    -0.02  -0.03  -0.01
  27   7    -0.01   0.04   0.06     0.07   0.02   0.03    -0.10  -0.06  -0.10
  28   1     0.02  -0.01   0.05     0.00   0.02   0.01    -0.03  -0.01  -0.02
  29   1    -0.01   0.04   0.00     0.03   0.00   0.01    -0.04   0.00  -0.03
  30   6    -0.01   0.05   0.01    -0.04   0.09   0.03    -0.03   0.11  -0.02
  31   8     0.02   0.11   0.10     0.04   0.11   0.06    -0.13   0.10  -0.10
  32   7    -0.19  -0.07  -0.17     0.07   0.20   0.15     0.22   0.20   0.20
  33   1    -0.06  -0.03  -0.05     0.05   0.07   0.06     0.07   0.06   0.07
  34   1    -0.04  -0.03  -0.06    -0.01   0.06   0.03     0.06   0.06   0.06
  35   7     0.15   0.14   0.09    -0.29  -0.00  -0.13    -0.18   0.07  -0.18
  36   1     0.01   0.01  -0.02    -0.06   0.01  -0.01    -0.00   0.04  -0.01
  37   1     0.03   0.04   0.02    -0.06  -0.01  -0.01    -0.05   0.02  -0.05
  38   6    -0.06   0.07  -0.08     0.07  -0.12   0.03     0.05   0.13   0.03
  39   8    -0.10   0.08  -0.23     0.11  -0.02   0.24     0.06   0.06   0.03
  40   7    -0.09   0.23   0.19     0.08  -0.26  -0.19     0.13   0.31   0.18
  41   1    -0.04   0.07   0.06     0.03  -0.04  -0.00     0.05   0.08   0.04
  42   1    -0.02   0.05   0.06     0.02  -0.06  -0.05     0.03   0.08   0.02
  43   7    -0.01  -0.06  -0.21     0.04  -0.16  -0.03    -0.02   0.09  -0.07
  44   1     0.00  -0.03  -0.04     0.00  -0.05  -0.03    -0.00   0.03  -0.02
  45   1     0.01  -0.02  -0.07     0.00  -0.04   0.00    -0.01   0.00  -0.02
  46   6    -0.02   0.01   0.05     0.03  -0.00   0.04     0.06   0.02  -0.05
  47   8    -0.02  -0.04   0.11     0.11  -0.09   0.01     0.03   0.17  -0.16
  48   7    -0.03  -0.07   0.15    -0.09  -0.12   0.17     0.11   0.08  -0.12
  49   1    -0.01  -0.02   0.03    -0.03  -0.03   0.01     0.04   0.03  -0.02
  50   1    -0.01   0.01   0.01    -0.04   0.01   0.01     0.04  -0.03   0.02
  51   7    -0.02   0.14  -0.09     0.08   0.23  -0.04     0.04  -0.21   0.14
  52   1    -0.01   0.02  -0.00     0.00   0.04   0.04     0.02  -0.05   0.01
  53   1    -0.00   0.03  -0.01     0.05   0.06   0.00    -0.00  -0.04   0.01
                     10                     11                     12
                        a                      a                      a 
 Frequencies --    62.8052                68.8680                70.7328
 Red. masses --    11.4194                13.3874                12.6680
 Frc consts  --     0.0000                 0.0000                 0.0000
 IR Inten    --     2.0878                 5.7010                 0.3723
 Raman Activ --     0.0000                 0.0000                 0.0000
 Depolar     --     0.0000                 0.0000                 0.0000
 Atom AN      X      Y      Z        X      Y      Z        X      Y      Z
   1   8     0.06   0.06  -0.24    -0.14  -0.09  -0.10     0.12   0.04   0.01
   2   6     0.17   0.00  -0.08    -0.09  -0.04  -0.05     0.10   0.11   0.02
   3   1     0.07  -0.00  -0.03    -0.01  -0.02  -0.01     0.03   0.05  -0.01
   4   1     0.07  -0.00  -0.03    -0.04  -0.01  -0.02     0.03   0.04   0.03
   5   6     0.09  -0.02   0.10    -0.09   0.06  -0.02     0.11   0.07  -0.01
   6   1    -0.01  -0.02   0.04    -0.04   0.03  -0.02     0.05   0.02  -0.01
   7   1     0.06   0.00   0.07    -0.03   0.02  -0.01     0.03   0.01  -0.01
   8   7     0.03  -0.04   0.10    -0.02   0.10   0.03     0.07   0.06  -0.00
   9   6    -0.15  -0.10  -0.08    -0.01   0.07   0.01     0.17   0.16   0.12
  10   1    -0.08  -0.04  -0.01    -0.01   0.02   0.00     0.09   0.06   0.02
  11   1    -0.06  -0.03  -0.03     0.01   0.02   0.01     0.05   0.05   0.04
  12   1    -0.03  -0.02  -0.07    -0.00   0.01  -0.00     0.04   0.06   0.07
  13   6    -0.05  -0.05   0.32    -0.03   0.19   0.05     0.13  -0.03  -0.17
  14   1    -0.06  -0.02   0.10    -0.03   0.05   0.02     0.08  -0.01  -0.05
  15   1     0.02  -0.01   0.12    -0.01   0.07   0.02     0.02  -0.02  -0.07
  16   1    -0.03  -0.01   0.10     0.01   0.06   0.02     0.03  -0.01  -0.06
  17   6     0.24   0.01   0.03     0.07   0.06   0.05    -0.15   0.02   0.04
  18   1     0.09   0.01  -0.05     0.02  -0.00   0.01    -0.06   0.02   0.06
  19   1     0.06   0.00   0.01     0.03   0.03   0.02    -0.05   0.00   0.01
  20   1     0.11   0.02   0.05     0.02   0.02   0.02    -0.07  -0.01  -0.02
  21   1     0.00   0.01  -0.05    -0.04  -0.03  -0.02     0.02  -0.00   0.02
  22   6     0.07  -0.03  -0.06    -0.03   0.04   0.10     0.02  -0.05  -0.02
  23   8    -0.07   0.08   0.07     0.02  -0.01   0.20    -0.03  -0.01  -0.06
  24   7     0.31   0.02  -0.09     0.01   0.04   0.12    -0.02  -0.02  -0.06
  25   1     0.08   0.06  -0.01     0.04  -0.02   0.06    -0.02   0.01  -0.02
  26   1     0.10  -0.00  -0.06     0.01   0.01   0.03     0.01  -0.02  -0.00
  27   7     0.03  -0.22  -0.16    -0.13   0.14   0.01     0.11  -0.15   0.05
  28   1     0.04  -0.08  -0.06    -0.06   0.05  -0.01     0.05  -0.05   0.03
  29   1    -0.03  -0.06  -0.04    -0.05   0.04   0.00     0.04  -0.04   0.01
  30   6    -0.03   0.02  -0.05     0.03   0.04  -0.08     0.05  -0.03   0.01
  31   8    -0.05  -0.08  -0.25    -0.06   0.06  -0.10     0.25  -0.04   0.05
  32   7     0.08   0.22   0.07     0.05  -0.00  -0.08    -0.10   0.04  -0.12
  33   1     0.02   0.06  -0.01     0.00  -0.01  -0.02    -0.01   0.03  -0.04
  34   1     0.01   0.07   0.05     0.04  -0.00  -0.01    -0.06   0.02  -0.04
  35   7    -0.10  -0.06   0.04     0.10   0.09  -0.08    -0.01  -0.09   0.08
  36   1    -0.01   0.01   0.06     0.03   0.02  -0.03    -0.05  -0.03   0.01
  37   1    -0.03  -0.04   0.01     0.02   0.02  -0.03     0.01  -0.05   0.03
  38   6    -0.06   0.00   0.04     0.11  -0.22   0.02    -0.08  -0.10   0.03
  39   8    -0.05  -0.01   0.09     0.11  -0.48  -0.12    -0.09  -0.30  -0.01
  40   7    -0.02   0.05   0.06     0.22   0.02   0.22    -0.00  -0.02   0.04
  41   1     0.00   0.02   0.02     0.08  -0.03   0.01     0.02  -0.03  -0.02
  42   1    -0.01   0.02   0.00     0.05   0.01   0.03    -0.01   0.01  -0.00
  43   7    -0.11  -0.03  -0.03     0.02  -0.19   0.02    -0.17  -0.01   0.11
  44   1    -0.03  -0.01  -0.02     0.02  -0.02   0.02    -0.04   0.03   0.03
  45   1    -0.03  -0.01   0.00    -0.00  -0.06   0.00    -0.05  -0.01   0.03
  46   6    -0.10   0.05   0.01    -0.03   0.02  -0.06    -0.11   0.10  -0.04
  47   8    -0.11   0.12  -0.07     0.07   0.02  -0.26    -0.23   0.40  -0.19
  48   7    -0.11  -0.04   0.12    -0.20   0.01  -0.08     0.03  -0.00   0.11
  49   1    -0.03   0.01   0.00    -0.06  -0.01  -0.04     0.02   0.04   0.03
  50   1    -0.03  -0.01   0.03    -0.07  -0.01   0.03     0.03  -0.06   0.07
  51   7    -0.11   0.05   0.02     0.02   0.03   0.19    -0.18  -0.15   0.01
  52   1    -0.03  -0.01   0.03    -0.02   0.03   0.06    -0.03  -0.09   0.01
  53   1    -0.03   0.02  -0.00     0.04   0.03   0.03    -0.08  -0.01  -0.05
                     13                     14                     15
                        a                      a                      a 
 Frequencies --    79.8010                92.6816                95.8684
 Red. masses --    12.1646                11.5377                12.4468
 Frc consts  --     0.0000                 0.0000                 0.0000
 IR Inten    --     0.7801                 6.2380                 9.1526
 Raman Activ --     0.0000                 0.0000                 0.0000
 Depolar     --     0.0000                 0.0000                 0.0000
 Atom AN      X      Y      Z        X      Y      Z        X      Y      Z
   1   8    -0.12  -0.17   0.02    -0.06   0.07   0.07    -0.03  -0.07  -0.04
   2   6    -0.17  -0.21  -0.07    -0.17  -0.08  -0.09    -0.04   0.01  -0.05
   3   1    -0.06  -0.10   0.01    -0.08  -0.06   0.01     0.00  -0.01  -0.01
   4   1    -0.08  -0.08  -0.06    -0.06  -0.04  -0.07    -0.04   0.00  -0.02
   5   6    -0.10  -0.05  -0.15    -0.11   0.00  -0.20    -0.02   0.14  -0.05
   6   1    -0.02   0.01  -0.06    -0.01   0.03  -0.09    -0.02   0.06  -0.02
   7   1    -0.05  -0.01  -0.07    -0.05  -0.03  -0.09    -0.02   0.04  -0.02
   8   7     0.05   0.01  -0.08    -0.10   0.06  -0.06     0.09   0.20   0.03
   9   6     0.10  -0.01  -0.05    -0.17   0.09  -0.11     0.19   0.22   0.13
  10   1     0.01   0.01  -0.02    -0.09   0.05  -0.05     0.06   0.08   0.02
  11   1     0.06   0.01   0.00    -0.03   0.04   0.01     0.08   0.08   0.06
  12   1     0.03  -0.04  -0.01    -0.04  -0.02  -0.06     0.05   0.04   0.06
  13   6     0.05   0.17  -0.09    -0.14   0.16   0.07     0.13   0.26  -0.08
  14   1    -0.00   0.06  -0.03    -0.08   0.05   0.02     0.04   0.06  -0.02
  15   1     0.00   0.06  -0.03    -0.03   0.06   0.04     0.01   0.09  -0.03
  16   1     0.04   0.06  -0.01    -0.03   0.05   0.04     0.06   0.08  -0.04
  17   6     0.15  -0.06  -0.02     0.07  -0.03   0.01     0.04   0.11   0.10
  18   1     0.05  -0.05  -0.01     0.04  -0.01  -0.04     0.00   0.01   0.06
  19   1     0.07  -0.00   0.01     0.00  -0.00   0.04     0.03   0.04   0.04
  20   1     0.04  -0.02  -0.01     0.06  -0.03   0.02    -0.01   0.03   0.01
  21   1    -0.02  -0.02  -0.02     0.03   0.02   0.01    -0.02  -0.02  -0.01
  22   6     0.15   0.06  -0.02     0.02   0.04   0.00    -0.16  -0.08   0.01
  23   8     0.09   0.17  -0.14    -0.11   0.18  -0.03    -0.32   0.02   0.09
  24   7     0.15   0.06  -0.03     0.09   0.08  -0.02     0.00  -0.06  -0.00
  25   1    -0.00   0.05  -0.04    -0.00   0.06  -0.02    -0.02   0.04  -0.01
  26   1     0.05   0.01   0.01     0.05  -0.01   0.00     0.01  -0.01  -0.03
  27   7     0.30  -0.08   0.10     0.13  -0.16   0.07    -0.16  -0.26  -0.03
  28   1     0.11  -0.04   0.05     0.08  -0.07   0.03    -0.01  -0.09  -0.01
  29   1     0.09  -0.01   0.02     0.02  -0.02   0.01    -0.06  -0.07  -0.01
  30   6    -0.03  -0.06   0.13    -0.07   0.03   0.06     0.03  -0.12  -0.08
  31   8     0.06  -0.05   0.22    -0.09   0.04   0.09    -0.01  -0.22  -0.24
  32   7    -0.07  -0.07   0.11    -0.06   0.00   0.07     0.06  -0.01  -0.03
  33   1    -0.01  -0.01   0.04    -0.01   0.00   0.03     0.01  -0.00  -0.04
  34   1    -0.04  -0.02   0.01    -0.02  -0.00   0.02     0.02   0.01   0.02
  35   7    -0.11  -0.10   0.08    -0.08   0.03   0.03     0.03  -0.17   0.04
  36   1    -0.04  -0.03   0.02    -0.02   0.01   0.00     0.02  -0.02   0.05
  37   1    -0.01  -0.02   0.04    -0.03   0.01   0.01     0.01  -0.05   0.01
  38   6     0.01   0.05   0.04    -0.00  -0.09  -0.01    -0.01   0.04   0.03
  39   8     0.03   0.17   0.19    -0.00  -0.23  -0.06     0.02   0.09   0.18
  40   7     0.01   0.03   0.02     0.05  -0.03   0.00     0.03   0.04  -0.08
  41   1     0.00   0.03   0.04     0.03  -0.02  -0.01     0.03   0.04   0.03
  42   1    -0.00  -0.01  -0.01     0.01   0.02   0.01     0.01   0.03  -0.02
  43   7     0.00  -0.06  -0.09    -0.05  -0.04   0.03    -0.09   0.01  -0.09
  44   1     0.00  -0.03  -0.02    -0.01   0.01   0.01    -0.04  -0.01  -0.06
  45   1     0.01  -0.01  -0.03    -0.01  -0.01   0.01    -0.04  -0.01  -0.01
  46   6    -0.13   0.05  -0.04     0.20  -0.03   0.02     0.05  -0.06   0.05
  47   8    -0.06   0.02  -0.16     0.07   0.15   0.11     0.07  -0.20   0.19
  48   7    -0.26   0.11  -0.14     0.43  -0.08   0.13     0.03   0.01  -0.03
  49   1    -0.08   0.01  -0.03     0.13   0.00   0.05     0.00  -0.01  -0.01
  50   1    -0.08   0.01   0.01     0.14  -0.04   0.01     0.00   0.03  -0.04
  51   7    -0.10   0.04   0.17     0.14  -0.16  -0.17     0.06   0.04  -0.03
  52   1    -0.04   0.05   0.03     0.07  -0.09  -0.05     0.01   0.02  -0.02
  53   1     0.00   0.03   0.03    -0.01  -0.04  -0.06     0.02  -0.01   0.02
                     16                     17                     18
                        a                      a                      a 
 Frequencies --   100.5314               114.3149               123.5965
 Red. masses --    12.7268                12.0229                12.8256
 Frc consts  --     0.0000                 0.0000                 0.0000
 IR Inten    --     2.2408                 1.6838                20.7427
 Raman Activ --     0.0000                 0.0000                 0.0000
 Depolar     --     0.0000                 0.0000                 0.0000
 Atom AN      X      Y      Z        X      Y      Z        X      Y      Z
   1   8     0.02   0.03  -0.08     0.03  -0.19  -0.17     0.06   0.14  -0.05
   2   6    -0.02  -0.05  -0.11     0.12   0.09  -0.01     0.03  -0.02  -0.08
   3   1    -0.01  -0.03  -0.02     0.08   0.07  -0.05    -0.00  -0.03   0.00
   4   1    -0.01  -0.02  -0.05     0.03   0.05   0.06     0.02  -0.02  -0.06
   5   6    -0.01  -0.02  -0.13     0.05   0.03   0.12     0.04   0.01  -0.09
   6   1     0.00   0.01  -0.05    -0.01  -0.03   0.06     0.02   0.02  -0.04
   7   1    -0.00  -0.02  -0.04     0.03   0.04   0.07     0.01  -0.01  -0.03
   8   7     0.01   0.01  -0.07     0.04  -0.03  -0.05     0.06   0.04  -0.01
   9   6     0.02   0.05  -0.04     0.14  -0.09   0.02     0.05   0.09   0.00
  10   1     0.01   0.02  -0.02     0.08  -0.05   0.02     0.02   0.04  -0.01
  11   1     0.01   0.02  -0.00     0.03  -0.04  -0.04     0.01   0.03   0.01
  12   1     0.00   0.01  -0.01     0.03   0.01   0.04     0.02   0.03  -0.00
  13   6     0.01   0.04  -0.07     0.09  -0.13  -0.19     0.06   0.07  -0.00
  14   1     0.00   0.03  -0.03     0.07  -0.04  -0.05     0.01   0.02  -0.00
  15   1     0.00   0.00  -0.03     0.01  -0.05  -0.07     0.01   0.02  -0.00
  16   1     0.00   0.02  -0.00     0.02  -0.04  -0.07     0.02   0.02   0.00
  17   6     0.01  -0.05  -0.02    -0.14   0.09  -0.14     0.09  -0.03   0.04
  18   1     0.00  -0.02  -0.00    -0.06   0.02   0.02     0.03  -0.01   0.00
  19   1     0.01  -0.01   0.01    -0.01   0.02  -0.09     0.02  -0.00   0.03
  20   1     0.00  -0.03  -0.01    -0.10   0.06  -0.07     0.03  -0.02   0.01
  21   1     0.03   0.01  -0.02    -0.02  -0.07  -0.02     0.03   0.04  -0.02
  22   6     0.02   0.11   0.01     0.03   0.09   0.10     0.03  -0.11   0.04
  23   8     0.16   0.00   0.01    -0.03   0.15   0.22     0.08  -0.18   0.13
  24   7     0.12  -0.09   0.17     0.14   0.22   0.03    -0.11   0.07  -0.10
  25   1     0.08  -0.09   0.07     0.04   0.09   0.02    -0.03   0.03  -0.02
  26   1     0.01   0.00   0.04     0.06   0.04  -0.02    -0.04   0.03  -0.04
  27   7    -0.22   0.48  -0.18     0.03  -0.05   0.06     0.10  -0.22   0.09
  28   1    -0.10   0.16  -0.07     0.02  -0.02  -0.01     0.01  -0.05   0.01
  29   1    -0.06   0.10  -0.03    -0.03  -0.02   0.02     0.01  -0.04   0.02
  30   6    -0.02  -0.15   0.01    -0.18  -0.04   0.09    -0.04   0.04  -0.07
  31   8    -0.13  -0.23  -0.13    -0.40  -0.04   0.06    -0.40   0.12  -0.02
  32   7     0.05  -0.09   0.09    -0.08  -0.14   0.19     0.12  -0.27   0.03
  33   1    -0.00  -0.04   0.00    -0.05  -0.06   0.06    -0.02  -0.12   0.04
  34   1     0.03  -0.02   0.05     0.02  -0.05   0.05     0.10  -0.10  -0.02
  35   7     0.03  -0.15   0.11    -0.09   0.03   0.06     0.16   0.22  -0.23
  36   1     0.04  -0.02   0.06     0.02   0.01   0.02     0.11   0.05  -0.06
  37   1     0.01  -0.04   0.03    -0.04   0.02   0.00     0.03   0.10  -0.07
  38   6    -0.01  -0.00   0.11    -0.03  -0.02  -0.09     0.07   0.01   0.07
  39   8     0.01   0.12   0.28    -0.04  -0.02  -0.10     0.07   0.12   0.07
  40   7    -0.03  -0.11  -0.00    -0.00   0.10   0.04    -0.02  -0.14   0.03
  41   1    -0.01  -0.00   0.04     0.01   0.04   0.03    -0.03  -0.03   0.01
  42   1    -0.01  -0.03  -0.00    -0.00   0.03   0.01    -0.00  -0.05   0.02
  43   7    -0.02  -0.08   0.04    -0.04  -0.13  -0.22     0.14   0.00   0.12
  44   1    -0.01  -0.02   0.01    -0.01  -0.03  -0.06     0.04  -0.01   0.04
  45   1    -0.01  -0.01   0.02    -0.01  -0.02  -0.05     0.04   0.00   0.03
  46   6    -0.01   0.05  -0.00     0.08   0.02  -0.00    -0.15   0.02   0.02
  47   8    -0.11   0.24  -0.03     0.08   0.07  -0.04    -0.23   0.08   0.07
  48   7     0.15  -0.01   0.10     0.09  -0.01   0.04    -0.05   0.02   0.04
  49   1     0.05   0.03   0.03     0.02   0.01  -0.01    -0.00   0.02   0.02
  50   1     0.06  -0.03   0.02     0.02   0.00   0.00     0.00  -0.01   0.00
  51   7    -0.06  -0.10  -0.07     0.08   0.01   0.01    -0.21  -0.07  -0.08
  52   1     0.00  -0.07  -0.01     0.02  -0.02   0.03    -0.04  -0.03  -0.04
  53   1    -0.05  -0.02  -0.04     0.02  -0.00   0.01    -0.08  -0.02  -0.03
                     19                     20                     21
                        a                      a                      a 
 Frequencies --   131.1160               138.4709               141.6926
 Red. masses --    12.9067                13.2283                12.9854
 Frc consts  --     0.0000                 0.0000                 0.0000
 IR Inten    --     0.9463                18.8926                 3.4446
 Raman Activ --     0.0000                 0.0000                 0.0000
 Depolar     --     0.0000                 0.0000                 0.0000
 Atom AN      X      Y      Z        X      Y      Z        X      Y      Z
   1   8     0.09   0.23   0.02    -0.02  -0.14  -0.01     0.16   0.24   0.08
   2   6     0.06   0.05  -0.01     0.02   0.07   0.06     0.07  -0.03  -0.03
   3   1    -0.00  -0.01   0.02     0.03   0.05  -0.01    -0.03  -0.03   0.02
   4   1     0.03   0.00  -0.03    -0.00   0.04   0.06     0.05  -0.02  -0.05
   5   6     0.08   0.04  -0.05    -0.00   0.05   0.11     0.11  -0.12  -0.14
   6   1     0.04   0.03  -0.03    -0.01  -0.00   0.04     0.06  -0.03  -0.05
   7   1     0.01  -0.00  -0.03     0.00   0.03   0.04     0.02  -0.06  -0.06
   8   7     0.11   0.07   0.01    -0.01   0.03   0.04     0.05  -0.14  -0.12
   9   6     0.08   0.13   0.02    -0.01  -0.03   0.02     0.04  -0.02  -0.08
  10   1     0.02   0.05  -0.01    -0.01  -0.02   0.01     0.02   0.01  -0.04
  11   1     0.02   0.04   0.02     0.00  -0.01  -0.00    -0.00  -0.00  -0.00
  12   1     0.02   0.03  -0.00    -0.00  -0.01   0.00     0.01   0.00  -0.02
  13   6     0.09   0.07   0.03    -0.02  -0.01   0.05     0.06  -0.15  -0.13
  14   1     0.02   0.02   0.01     0.00   0.00   0.01     0.03  -0.04  -0.04
  15   1     0.03   0.02   0.01     0.00  -0.01   0.01     0.02  -0.06  -0.04
  16   1     0.02   0.02   0.01    -0.01  -0.01   0.02     0.01  -0.04  -0.03
  17   6     0.13   0.02   0.06    -0.03   0.09  -0.01    -0.01  -0.18  -0.06
  18   1     0.04   0.01  -0.00    -0.01   0.03   0.00    -0.00  -0.03  -0.03
  19   1     0.02   0.01   0.04    -0.00   0.02  -0.02    -0.03  -0.06   0.00
  20   1     0.06  -0.01   0.02    -0.02   0.04  -0.00     0.01  -0.08  -0.02
  21   1     0.03   0.06  -0.00    -0.03  -0.05   0.01     0.06   0.08  -0.00
  22   6    -0.02  -0.09  -0.17    -0.06   0.05  -0.22    -0.07   0.16   0.07
  23   8     0.01  -0.15  -0.12    -0.19   0.15  -0.25    -0.23   0.34  -0.01
  24   7     0.02  -0.12  -0.16     0.18  -0.12  -0.10     0.09   0.09   0.15
  25   1     0.04  -0.06  -0.02     0.04  -0.01  -0.03     0.00   0.05   0.03
  26   1     0.01  -0.03  -0.05     0.05  -0.03  -0.04     0.05  -0.01   0.05
  27   7    -0.13  -0.01  -0.27    -0.14   0.04  -0.30    -0.03   0.06   0.10
  28   1    -0.04   0.00  -0.08    -0.00  -0.01  -0.06     0.03  -0.01   0.03
  29   1    -0.04  -0.01  -0.07    -0.05   0.03  -0.09    -0.03   0.03   0.02
  30   6    -0.16  -0.04   0.18     0.06   0.06   0.08    -0.04  -0.02  -0.02
  31   8    -0.21  -0.04   0.23     0.05   0.20   0.34    -0.10  -0.05  -0.09
  32   7    -0.15  -0.11   0.22     0.02  -0.22   0.02    -0.01   0.02   0.01
  33   1    -0.05  -0.04   0.07    -0.01  -0.08   0.05    -0.00   0.01  -0.00
  34   1    -0.03  -0.04   0.04     0.01  -0.09  -0.06     0.01   0.01   0.03
  35   7    -0.14  -0.02   0.17     0.10   0.15  -0.11    -0.02  -0.01   0.02
  36   1    -0.03  -0.01   0.04     0.03   0.01  -0.07     0.01   0.00   0.02
  37   1    -0.05  -0.00   0.03     0.04   0.07  -0.01    -0.01  -0.01  -0.00
  38   6    -0.05  -0.01  -0.01     0.09  -0.07   0.06     0.08  -0.01   0.04
  39   8    -0.09  -0.12  -0.20     0.14  -0.11   0.23     0.10  -0.23   0.01
  40   7    -0.08  -0.03   0.02     0.19   0.00  -0.04     0.19   0.04  -0.09
  41   1    -0.03  -0.06  -0.07     0.08   0.03   0.05     0.07  -0.03  -0.06
  42   1    -0.02  -0.02   0.00     0.05   0.04  -0.01     0.05   0.05  -0.03
  43   7     0.03   0.13   0.20    -0.08  -0.08  -0.08    -0.04   0.22   0.21
  44   1     0.01   0.03   0.07    -0.03  -0.01  -0.05    -0.02   0.06   0.02
  45   1     0.02   0.03   0.03    -0.04  -0.04  -0.01    -0.02   0.03   0.05
  46   6     0.06  -0.00  -0.04    -0.07  -0.02   0.04    -0.10  -0.06   0.03
  47   8     0.17  -0.07  -0.16    -0.12  -0.05   0.16    -0.07  -0.22   0.13
  48   7    -0.08  -0.02  -0.06    -0.01   0.01   0.02    -0.16   0.01  -0.07
  49   1    -0.03  -0.02  -0.03    -0.00   0.00   0.01    -0.05  -0.02   0.01
  50   1    -0.04  -0.00   0.01     0.00   0.01  -0.02    -0.05   0.01  -0.02
  51   7     0.13   0.10   0.10    -0.11  -0.05  -0.06    -0.10   0.03   0.00
  52   1     0.01   0.04   0.05    -0.01  -0.01  -0.05    -0.03   0.06  -0.04
  53   1     0.07   0.03   0.03    -0.05  -0.02  -0.01    -0.01   0.01   0.01
                     22                     23                     24
                        a                      a                      a 
 Frequencies --   147.2319               161.7956               183.4198
 Red. masses --    13.0390                13.1788                 9.6741
 Frc consts  --     0.0000                 0.0000                 0.0000
 IR Inten    --    26.0096                14.4428                 6.4700
 Raman Activ --     0.0000                 0.0000                 0.0000
 Depolar     --     0.0000                 0.0000                 0.0000
 Atom AN      X      Y      Z        X      Y      Z        X      Y      Z
   1   8     0.04   0.03   0.07     0.07  -0.01   0.06     0.17  -0.27   0.22
   2   6    -0.05  -0.07  -0.04     0.05   0.05   0.05     0.04   0.17   0.11
   3   1    -0.04  -0.03   0.01     0.01   0.03  -0.00     0.00   0.13  -0.03
   4   1    -0.02  -0.03  -0.03     0.02   0.02   0.04    -0.02   0.09   0.13
   5   6     0.00  -0.07  -0.14     0.05  -0.01   0.00     0.13   0.05  -0.13
   6   1     0.02  -0.01  -0.05     0.03  -0.00   0.00     0.11   0.04  -0.06
   7   1    -0.01  -0.04  -0.06     0.01  -0.01  -0.01     0.01  -0.04  -0.09
   8   7    -0.01  -0.06  -0.10     0.01  -0.02   0.00    -0.00   0.06  -0.03
   9   6     0.00  -0.00  -0.06    -0.01  -0.00  -0.01    -0.09   0.17  -0.06
  10   1    -0.00   0.01  -0.03    -0.01   0.01  -0.01    -0.10   0.11  -0.06
  11   1     0.00   0.01  -0.00     0.00   0.00   0.01     0.02   0.09   0.07
  12   1    -0.00  -0.01  -0.01     0.00  -0.01  -0.01    -0.01  -0.04  -0.06
  13   6    -0.01  -0.05  -0.10     0.01  -0.06   0.01    -0.04  -0.04   0.08
  14   1    -0.00  -0.03  -0.02     0.01  -0.02   0.00    -0.03  -0.06   0.06
  15   1    -0.00   0.00  -0.02     0.01  -0.02   0.00     0.00   0.03   0.06
  16   1     0.01  -0.02  -0.04    -0.00  -0.02   0.00    -0.02  -0.03  -0.03
  17   6    -0.05  -0.11  -0.05    -0.01  -0.02  -0.00    -0.01   0.02   0.02
  18   1    -0.01  -0.02  -0.02     0.00   0.02  -0.02     0.03   0.15  -0.12
  19   1    -0.03  -0.03   0.00    -0.04  -0.01   0.00    -0.19  -0.04   0.07
  20   1    -0.00  -0.06  -0.02     0.02  -0.02   0.01     0.15  -0.11   0.08
  21   1     0.03   0.02   0.01     0.02  -0.01   0.02     0.03  -0.09   0.08
  22   6    -0.08  -0.02   0.08    -0.11   0.10  -0.04    -0.03   0.01  -0.00
  23   8    -0.16  -0.04   0.47    -0.30   0.31  -0.25    -0.06   0.03  -0.04
  24   7     0.21   0.20  -0.05    -0.00  -0.09   0.09    -0.05  -0.02   0.01
  25   1     0.11   0.10   0.05    -0.08   0.04  -0.03    -0.02  -0.01  -0.00
  26   1     0.08   0.06  -0.11    -0.02  -0.01   0.04    -0.01  -0.02   0.02
  27   7    -0.31  -0.14  -0.20     0.02  -0.04   0.08    -0.04   0.00  -0.00
  28   1    -0.06  -0.05  -0.10     0.06  -0.05   0.06     0.00  -0.01   0.00
  29   1    -0.10  -0.07  -0.04    -0.00   0.02   0.01    -0.01  -0.01   0.00
  30   6     0.10   0.06   0.05     0.05   0.01  -0.09    -0.08  -0.03   0.03
  31   8     0.30   0.12   0.22    -0.07   0.03  -0.10    -0.07  -0.09  -0.06
  32   7    -0.04   0.02  -0.07     0.11  -0.09  -0.06    -0.06   0.09   0.07
  33   1     0.02   0.02   0.00     0.01  -0.04  -0.01    -0.01   0.03  -0.00
  34   1    -0.04   0.00  -0.05     0.06  -0.03  -0.02    -0.03   0.03   0.04
  35   7     0.01   0.02  -0.03     0.13   0.08  -0.12    -0.10  -0.07   0.09
  36   1    -0.03  -0.01  -0.04     0.05   0.02  -0.03    -0.02  -0.01   0.04
  37   1     0.02   0.01   0.01     0.03   0.03  -0.04    -0.03  -0.02   0.02
  38   6     0.00   0.02   0.03    -0.11  -0.08   0.13     0.16  -0.03  -0.10
  39   8    -0.02   0.18  -0.00    -0.15   0.13   0.13     0.16   0.10  -0.17
  40   7    -0.11  -0.10   0.04    -0.26  -0.25   0.17     0.07  -0.05   0.06
  41   1    -0.06  -0.01   0.02    -0.11  -0.05   0.05    -0.01   0.01   0.03
  42   1    -0.02  -0.06   0.02    -0.07  -0.12   0.04     0.03  -0.04   0.03
  43   7     0.13  -0.04   0.04     0.03  -0.19   0.13     0.29  -0.15  -0.17
  44   1     0.04  -0.02   0.04     0.02  -0.06   0.07     0.09  -0.04  -0.00
  45   1     0.05   0.00   0.01     0.04  -0.04   0.01     0.10  -0.04  -0.06
  46   6     0.01   0.02  -0.02     0.10   0.04  -0.07    -0.09   0.03   0.01
  47   8     0.02   0.06  -0.09     0.19   0.08  -0.25    -0.11   0.03   0.02
  48   7    -0.00   0.01  -0.01     0.00  -0.02  -0.02    -0.06   0.04  -0.01
  49   1    -0.00  -0.00   0.01    -0.00  -0.01  -0.02    -0.02  -0.02   0.05
  50   1    -0.00  -0.02   0.02    -0.01  -0.02   0.04    -0.01  -0.04   0.05
  51   7     0.02   0.01   0.03     0.17   0.08   0.12    -0.12  -0.06   0.03
  52   1     0.00   0.00   0.01     0.02   0.03   0.06    -0.01   0.07  -0.11
  53   1     0.01   0.01  -0.01     0.08   0.05   0.01    -0.04   0.05  -0.08
                     25                     26                     27
                        a                      a                      a 
 Frequencies --   193.8091               204.3115               238.3779
 Red. masses --    10.7661                 2.3572                 6.6322
 Frc consts  --     0.0000                 0.0000                 0.0000
 IR Inten    --    27.3859               113.4290                 5.7147
 Raman Activ --     0.0000                 0.0000                 0.0000
 Depolar     --     0.0000                 0.0000                 0.0000
 Atom AN      X      Y      Z        X      Y      Z        X      Y      Z
   1   8    -0.13   0.22  -0.13    -0.00   0.05  -0.07     0.29  -0.30   0.19
   2   6    -0.02  -0.08  -0.04     0.02  -0.04  -0.05     0.07  -0.14  -0.03
   3   1     0.01  -0.07   0.03     0.01  -0.03   0.00     0.02  -0.07   0.02
   4   1     0.02  -0.05  -0.08     0.01  -0.02  -0.04    -0.05  -0.05  -0.04
   5   6    -0.10  -0.00   0.15    -0.02   0.01   0.03     0.13   0.07  -0.13
   6   1    -0.08  -0.02   0.06    -0.03  -0.00   0.02     0.04   0.05  -0.06
   7   1    -0.00   0.04   0.09     0.01   0.02   0.03     0.04  -0.01  -0.05
   8   7    -0.00  -0.01   0.07    -0.01   0.01   0.02    -0.02   0.09  -0.04
   9   6     0.07  -0.12   0.08     0.00  -0.02   0.01    -0.15   0.19  -0.11
  10   1     0.08  -0.10   0.07     0.02  -0.03   0.02     0.01   0.02  -0.01
  11   1    -0.02  -0.07  -0.06    -0.02  -0.02  -0.03    -0.12   0.02  -0.07
  12   1     0.01   0.04   0.06    -0.00   0.03   0.01    -0.04   0.15  -0.03
  13   6     0.03   0.05  -0.02    -0.01   0.01   0.01    -0.10  -0.06   0.14
  14   1     0.03   0.04  -0.03     0.00   0.02  -0.01    -0.02   0.10  -0.05
  15   1    -0.00  -0.01  -0.03     0.00  -0.02  -0.01     0.04  -0.18   0.01
  16   1     0.01   0.03   0.03    -0.01   0.01   0.03    -0.13  -0.01   0.20
  17   6    -0.01   0.07   0.00    -0.01   0.03  -0.01    -0.06   0.11  -0.07
  18   1    -0.03  -0.11   0.12    -0.02  -0.05   0.05    -0.07  -0.22   0.21
  19   1     0.17   0.06  -0.07     0.08   0.03  -0.03     0.31   0.11  -0.13
  20   1    -0.14   0.13  -0.06    -0.07   0.06  -0.03    -0.29   0.21  -0.16
  21   1    -0.01   0.05  -0.04     0.01   0.02  -0.03     0.07  -0.05   0.02
  22   6    -0.08   0.04  -0.04     0.01  -0.01  -0.00    -0.01  -0.01   0.01
  23   8    -0.19   0.14  -0.13     0.01  -0.01   0.01    -0.00  -0.02   0.01
  24   7    -0.04  -0.06   0.03    -0.00   0.00  -0.01    -0.01  -0.00  -0.00
  25   1    -0.05   0.01  -0.02     0.00  -0.00   0.00     0.00  -0.01   0.00
  26   1    -0.02  -0.01   0.02     0.00  -0.00   0.00    -0.00  -0.00   0.00
  27   7    -0.06  -0.02  -0.01     0.00  -0.00  -0.00    -0.01  -0.01  -0.00
  28   1     0.03  -0.04   0.02    -0.00  -0.00  -0.00    -0.00  -0.00  -0.00
  29   1    -0.01   0.00  -0.01     0.00  -0.00  -0.00    -0.00  -0.00  -0.00
  30   6    -0.03  -0.02   0.04     0.00   0.00  -0.00    -0.01  -0.01  -0.00
  31   8     0.05  -0.07  -0.00     0.01   0.01   0.01    -0.03  -0.01  -0.02
  32   7    -0.07   0.10   0.03     0.00  -0.00  -0.00    -0.00  -0.00  -0.00
  33   1    -0.00   0.05  -0.01     0.00  -0.00  -0.00     0.00   0.00   0.00
  34   1    -0.04   0.04   0.02     0.00  -0.00  -0.00     0.01   0.00   0.01
  35   7    -0.09  -0.08   0.09     0.00   0.00  -0.00    -0.00   0.00   0.00
  36   1    -0.03  -0.02   0.03    -0.00   0.00  -0.00     0.00  -0.00  -0.00
  37   1    -0.03  -0.03   0.02     0.00   0.00  -0.00    -0.00   0.00  -0.00
  38   6     0.21  -0.04  -0.05    -0.03  -0.00   0.01    -0.00   0.02   0.02
  39   8     0.20   0.10  -0.24    -0.04   0.00   0.01    -0.01  -0.00  -0.00
  40   7     0.05  -0.16   0.11    -0.03  -0.01  -0.02    -0.00   0.01  -0.00
  41   1    -0.04  -0.04  -0.00    -0.00   0.00   0.00    -0.00  -0.01  -0.02
  42   1     0.02  -0.09   0.05    -0.00   0.01   0.00    -0.00   0.00  -0.00
  43   7     0.42  -0.07   0.03    -0.03  -0.00   0.01     0.01   0.06   0.06
  44   1     0.14  -0.02   0.07    -0.01  -0.00   0.00    -0.00   0.01   0.01
  45   1     0.14  -0.03  -0.03    -0.01  -0.00   0.00     0.00   0.02   0.02
  46   6    -0.05   0.02   0.01     0.04   0.03  -0.02    -0.02  -0.00   0.00
  47   8    -0.10   0.08   0.03     0.04  -0.02   0.04    -0.00  -0.02  -0.02
  48   7     0.02  -0.00   0.06     0.02   0.00  -0.02    -0.03   0.02  -0.03
  49   1     0.01   0.03  -0.01    -0.01  -0.10   0.14    -0.01  -0.00   0.01
  50   1     0.01   0.01  -0.02     0.01  -0.15   0.24    -0.01   0.00  -0.01
  51   7    -0.09  -0.05  -0.08    -0.00  -0.18   0.21    -0.00   0.04   0.00
  52   1    -0.01  -0.07   0.01     0.07   0.47  -0.56    -0.01  -0.04   0.07
  53   1    -0.06  -0.04   0.00     0.04   0.28  -0.36     0.00  -0.02   0.05
                     28                     29                     30
                        a                      a                      a 
 Frequencies --   248.6596               271.5217               293.8781
 Red. masses --    11.9363                 3.4501                 4.7327
 Frc consts  --     0.0000                 0.0000                 0.0000
 IR Inten    --     7.2535               216.7422                 0.4388
 Raman Activ --     0.0000                 0.0000                 0.0000
 Depolar     --     0.0000                 0.0000                 0.0000
 Atom AN      X      Y      Z        X      Y      Z        X      Y      Z
   1   8    -0.01  -0.48  -0.33     0.01  -0.01  -0.02    -0.19  -0.15  -0.06
   2   6     0.06  -0.03  -0.18     0.01  -0.02  -0.01    -0.09  -0.19  -0.00
   3   1     0.07   0.04  -0.11     0.01  -0.01  -0.00    -0.01  -0.09   0.02
   4   1    -0.01   0.02   0.02     0.00  -0.01  -0.01    -0.05  -0.07  -0.04
   5   6    -0.04   0.01   0.01    -0.00   0.00   0.02    -0.05   0.04   0.06
   6   1    -0.06  -0.00   0.01    -0.01   0.00   0.01    -0.06   0.00   0.03
   7   1     0.02   0.02   0.04     0.00   0.01   0.01    -0.01   0.05   0.04
   8   7    -0.06   0.00   0.00     0.00   0.00   0.01     0.07   0.05  -0.00
   9   6     0.01  -0.08   0.03    -0.00  -0.01   0.01    -0.02   0.24  -0.00
  10   1    -0.09   0.04  -0.04    -0.02   0.01  -0.01     0.21  -0.07   0.08
  11   1     0.12   0.03   0.09     0.01   0.01   0.02    -0.23  -0.04  -0.15
  12   1     0.01  -0.18  -0.02     0.00  -0.02  -0.01    -0.02   0.36   0.06
  13   6    -0.06   0.07  -0.01     0.01  -0.00  -0.00     0.08  -0.25  -0.04
  14   1    -0.04  -0.02   0.02     0.00  -0.01   0.00     0.12   0.07  -0.12
  15   1    -0.03   0.08   0.02    -0.00   0.01   0.00     0.07  -0.29  -0.09
  16   1     0.02   0.02  -0.05     0.01  -0.00  -0.01    -0.12  -0.07   0.16
  17   6    -0.08   0.01   0.00    -0.00   0.01   0.01     0.13   0.12  -0.06
  18   1    -0.02   0.04  -0.02    -0.00  -0.00   0.01     0.09   0.21  -0.20
  19   1    -0.07  -0.01   0.01     0.01   0.00  -0.00    -0.19  -0.03   0.04
  20   1     0.01  -0.02   0.02    -0.01   0.01   0.00     0.25  -0.07   0.10
  21   1    -0.05  -0.17  -0.04     0.00   0.00  -0.01    -0.06  -0.02  -0.03
  22   6    -0.01   0.01  -0.01     0.02  -0.04   0.01    -0.01   0.01   0.01
  23   8    -0.03   0.03  -0.02    -0.05   0.04  -0.05    -0.02   0.02  -0.00
  24   7     0.01  -0.01   0.01    -0.24   0.29  -0.17    -0.01   0.01   0.01
  25   1    -0.01   0.01  -0.01     0.30  -0.32   0.18     0.00  -0.00   0.01
  26   1    -0.01   0.01  -0.01     0.44  -0.53   0.32     0.01  -0.01   0.01
  27   7    -0.00  -0.00   0.00     0.03  -0.05   0.01    -0.01  -0.01   0.01
  28   1     0.00  -0.00   0.00    -0.06   0.04  -0.03    -0.00  -0.00  -0.00
  29   1    -0.00   0.00  -0.00    -0.04   0.03  -0.02    -0.01   0.00  -0.00
  30   6     0.00   0.00   0.01     0.01  -0.00  -0.01     0.00  -0.00   0.00
  31   8     0.02   0.00   0.01     0.01  -0.01  -0.01     0.01   0.00   0.00
  32   7    -0.01  -0.00  -0.01     0.01  -0.00  -0.00    -0.01   0.01  -0.02
  33   1     0.00   0.00   0.00    -0.00  -0.00  -0.01     0.01   0.01   0.01
  34   1    -0.00  -0.00   0.00    -0.01  -0.00  -0.02     0.02   0.01   0.02
  35   7     0.00  -0.00   0.01     0.00  -0.01  -0.01     0.01   0.00  -0.00
  36   1    -0.00  -0.00  -0.00     0.01   0.00   0.01    -0.01  -0.01  -0.01
  37   1    -0.00  -0.00  -0.00     0.00   0.00   0.00    -0.00   0.00  -0.01
  38   6     0.03   0.10   0.13     0.01   0.01   0.04     0.01   0.02   0.03
  39   8     0.01   0.02  -0.09     0.00   0.04   0.03     0.01   0.01  -0.02
  40   7    -0.00  -0.01  -0.01    -0.02  -0.04   0.00     0.00  -0.01  -0.01
  41   1    -0.01  -0.06  -0.09    -0.00   0.02   0.05    -0.00  -0.01  -0.01
  42   1     0.00   0.02   0.02     0.00   0.00   0.02     0.00   0.01   0.01
  43   7     0.12   0.36   0.44     0.01  -0.03   0.01     0.03   0.07   0.10
  44   1     0.03   0.08   0.10     0.01   0.01   0.01     0.01   0.02   0.03
  45   1     0.04   0.10   0.11    -0.00   0.03   0.03     0.01   0.01   0.02
  46   6     0.03   0.02   0.01     0.01  -0.00  -0.01     0.02   0.01   0.00
  47   8     0.01   0.04   0.01     0.01  -0.00  -0.01     0.01   0.02   0.01
  48   7     0.03  -0.01   0.03    -0.00  -0.01   0.00     0.02  -0.00   0.01
  49   1     0.00   0.00  -0.01     0.00   0.00  -0.01     0.00  -0.00  -0.01
  50   1     0.01   0.01  -0.00    -0.00   0.00  -0.01     0.00   0.01   0.00
  51   7     0.01  -0.02  -0.01     0.01   0.01   0.00     0.01  -0.02  -0.02
  52   1     0.01  -0.00  -0.02    -0.00  -0.00   0.01     0.01  -0.01  -0.01
  53   1    -0.00   0.00  -0.01     0.01  -0.00   0.01    -0.01  -0.00  -0.01
                     31                     32                     33
                        a                      a                      a 
 Frequencies --   300.0163               327.5717               331.4489
 Red. masses --     5.3483                 2.5517                 2.5560
 Frc consts  --     0.0000                 0.0000                 0.0000
 IR Inten    --     0.8303                76.3326                22.0280
 Raman Activ --     0.0000                 0.0000                 0.0000
 Depolar     --     0.0000                 0.0000                 0.0000
 Atom AN      X      Y      Z        X      Y      Z        X      Y      Z
   1   8     0.01   0.06   0.02     0.08  -0.07   0.02     0.12  -0.09   0.03
   2   6    -0.00  -0.37  -0.05     0.03  -0.02  -0.02     0.05  -0.01  -0.03
   3   1     0.00  -0.23   0.09     0.01  -0.01  -0.00     0.02  -0.00  -0.01
   4   1    -0.03  -0.17  -0.18    -0.00  -0.01  -0.01    -0.00  -0.00  -0.00
   5   6     0.02   0.04   0.06     0.02   0.01  -0.01     0.03   0.01  -0.03
   6   1    -0.02   0.03   0.01    -0.00  -0.00   0.00     0.02   0.01  -0.01
   7   1     0.00   0.02   0.02     0.01   0.01   0.01     0.01  -0.01  -0.02
   8   7     0.04   0.07   0.07    -0.01   0.01   0.00    -0.01   0.02   0.03
   9   6    -0.03   0.18   0.05    -0.07  -0.02  -0.05    -0.10  -0.05  -0.07
  10   1    -0.11   0.15  -0.06     0.11  -0.13   0.07     0.17  -0.23   0.13
  11   1     0.07   0.11   0.14    -0.16  -0.09  -0.16    -0.26  -0.15  -0.27
  12   1     0.01  -0.08  -0.03    -0.03   0.19   0.02    -0.04   0.32   0.04
  13   6     0.05  -0.28   0.05     0.00   0.10  -0.02     0.02   0.16  -0.02
  14   1    -0.00  -0.35   0.21    -0.03  -0.07   0.06    -0.06  -0.18   0.16
  15   1    -0.01   0.18   0.14    -0.03   0.16   0.04    -0.07   0.34   0.09
  16   1     0.07  -0.15  -0.31     0.07   0.02  -0.13     0.16   0.02  -0.28
  17   6    -0.09   0.29  -0.13    -0.05  -0.04   0.06    -0.07  -0.06   0.10
  18   1    -0.03   0.12  -0.04    -0.01   0.00   0.01    -0.03  -0.01   0.04
  19   1    -0.05   0.05  -0.11    -0.04  -0.01   0.04    -0.04  -0.02   0.05
  20   1    -0.02   0.13  -0.02     0.00  -0.05   0.01    -0.02  -0.05   0.01
  21   1     0.03   0.07  -0.05     0.02  -0.01   0.00     0.02  -0.01  -0.00
  22   6     0.01   0.01  -0.01     0.00   0.00  -0.00    -0.00   0.00  -0.01
  23   8     0.02   0.01  -0.02     0.00   0.01   0.00    -0.01   0.01  -0.03
  24   7     0.01  -0.01   0.01    -0.01  -0.00   0.01     0.01  -0.00  -0.01
  25   1    -0.01   0.01  -0.01    -0.01   0.00  -0.00     0.00   0.00  -0.00
  26   1    -0.02   0.02  -0.01    -0.01   0.01   0.00     0.01  -0.02   0.01
  27   7     0.01   0.03   0.00    -0.01   0.02  -0.00     0.01   0.00   0.00
  28   1    -0.00   0.01  -0.01     0.03  -0.02   0.02    -0.02   0.02  -0.02
  29   1     0.01  -0.01   0.01     0.01   0.00  -0.00    -0.01  -0.00   0.00
  30   6     0.00   0.01   0.00     0.01   0.02  -0.01    -0.01  -0.00   0.01
  31   8    -0.00   0.01   0.00     0.01   0.01  -0.01    -0.01   0.00   0.01
  32   7     0.00  -0.00   0.01     0.14   0.03   0.23    -0.08  -0.04  -0.12
  33   1    -0.01  -0.01  -0.01    -0.18  -0.09  -0.27     0.09   0.04   0.15
  34   1    -0.01  -0.01  -0.02    -0.41  -0.12  -0.51     0.23   0.06   0.28
  35   7    -0.00   0.01  -0.01    -0.05  -0.03  -0.05     0.02   0.01   0.04
  36   1     0.01   0.01   0.01     0.22   0.12   0.23    -0.13  -0.06  -0.12
  37   1     0.00   0.00   0.00     0.05   0.03   0.06    -0.03  -0.02  -0.03
  38   6    -0.00  -0.01  -0.01    -0.00  -0.00  -0.01    -0.00   0.01   0.02
  39   8     0.00  -0.01   0.01    -0.01  -0.01  -0.02    -0.00   0.00   0.01
  40   7     0.00  -0.00   0.01    -0.00   0.01   0.01    -0.00  -0.01  -0.02
  41   1    -0.00  -0.01  -0.01    -0.00  -0.02  -0.03     0.01   0.02   0.03
  42   1    -0.00  -0.01  -0.01    -0.00   0.00  -0.01     0.00   0.01   0.01
  43   7    -0.01  -0.02  -0.02    -0.00   0.02   0.02     0.00   0.03   0.03
  44   1    -0.00  -0.01  -0.01     0.00   0.01   0.01     0.00  -0.00   0.01
  45   1    -0.00  -0.00  -0.00     0.00   0.00   0.00     0.00  -0.01  -0.01
  46   6    -0.00  -0.00   0.00    -0.00  -0.00   0.00    -0.00   0.00  -0.00
  47   8    -0.00  -0.00   0.00     0.00  -0.00   0.00     0.00  -0.00  -0.01
  48   7    -0.00   0.01  -0.01    -0.00   0.01  -0.01    -0.00  -0.00  -0.00
  49   1    -0.00  -0.01   0.01    -0.00  -0.00   0.01    -0.00   0.00   0.00
  50   1     0.00  -0.01   0.02     0.00  -0.02   0.02    -0.00   0.00  -0.00
  51   7    -0.00   0.01  -0.00     0.00   0.01  -0.00    -0.00   0.00   0.00
  52   1    -0.00  -0.01   0.01    -0.00  -0.00   0.01    -0.00  -0.00   0.00
  53   1    -0.00  -0.00   0.01     0.00  -0.00   0.01     0.00  -0.00   0.00
                     34                     35                     36
                        a                      a                      a 
 Frequencies --   334.6064               365.8349               375.6793
 Red. masses --     7.9231                 3.9070                 6.9214
 Frc consts  --     0.0000                 0.0000                 0.0000
 IR Inten    --     7.8436               169.1842                52.8868
 Raman Activ --     0.0000                 0.0000                 0.0000
 Depolar     --     0.0000                 0.0000                 0.0000
 Atom AN      X      Y      Z        X      Y      Z        X      Y      Z
   1   8    -0.37  -0.06  -0.11    -0.01  -0.01  -0.04     0.17  -0.01   0.09
   2   6    -0.07   0.16   0.20     0.04   0.00   0.02     0.16  -0.18   0.07
   3   1     0.02   0.12  -0.01     0.04  -0.01   0.01     0.09  -0.15   0.10
   4   1     0.01   0.09   0.16     0.00  -0.00  -0.00     0.00  -0.10  -0.10
   5   6     0.01  -0.03   0.07    -0.02   0.04   0.13     0.02   0.14   0.32
   6   1     0.05  -0.04   0.03    -0.05  -0.03   0.07    -0.11  -0.04   0.17
   7   1    -0.04   0.02  -0.02     0.01   0.06   0.08     0.05   0.15   0.19
   8   7     0.12  -0.07  -0.07    -0.00   0.00  -0.02    -0.03   0.06  -0.03
   9   6    -0.12   0.30  -0.14    -0.09   0.06  -0.08    -0.25   0.06  -0.22
  10   1    -0.05   0.15  -0.08    -0.06   0.04  -0.03    -0.20   0.06  -0.09
  11   1    -0.11   0.10   0.06    -0.04   0.03   0.01    -0.04   0.05   0.02
  12   1    -0.01   0.11  -0.10    -0.01   0.00  -0.06    -0.04  -0.07  -0.17
  13   6     0.13  -0.19  -0.07     0.03   0.02  -0.11     0.05   0.17  -0.29
  14   1     0.04  -0.18   0.07     0.03   0.01  -0.04     0.07   0.12  -0.14
  15   1     0.01   0.07   0.03    -0.01   0.00  -0.05    -0.04  -0.01  -0.16
  16   1     0.07  -0.08  -0.17     0.02   0.01  -0.03     0.04   0.07  -0.02
  17   6     0.23  -0.24   0.06     0.03  -0.09   0.05    -0.05  -0.12   0.12
  18   1     0.04  -0.26   0.13     0.01  -0.05   0.01    -0.00  -0.03  -0.00
  19   1     0.27   0.00   0.02     0.02  -0.01   0.05    -0.07  -0.02   0.12
  20   1    -0.08   0.01  -0.06     0.01  -0.04   0.01     0.03  -0.12   0.04
  21   1    -0.14  -0.06   0.02     0.00  -0.01  -0.00     0.04   0.03  -0.00
  22   6    -0.00   0.01   0.00    -0.00  -0.00  -0.00     0.00  -0.01  -0.00
  23   8    -0.00   0.01  -0.00    -0.01   0.00  -0.01     0.00  -0.01   0.00
  24   7     0.00   0.01   0.01    -0.00   0.00  -0.01    -0.00  -0.01  -0.01
  25   1    -0.00   0.01  -0.00     0.01  -0.01   0.00    -0.00  -0.00  -0.00
  26   1    -0.00   0.00   0.00     0.01  -0.01   0.00    -0.02   0.02  -0.01
  27   7    -0.00   0.01   0.00     0.01  -0.00   0.00    -0.00  -0.00  -0.01
  28   1    -0.00   0.00  -0.00    -0.01   0.01  -0.00     0.01  -0.01   0.01
  29   1    -0.00  -0.01   0.00    -0.00   0.00  -0.00     0.00   0.01  -0.00
  30   6     0.00   0.00  -0.00     0.01   0.01   0.01     0.00   0.01   0.01
  31   8     0.00   0.00   0.00     0.01   0.01   0.01     0.00   0.00   0.00
  32   7     0.01   0.00   0.01    -0.02  -0.01  -0.03    -0.01  -0.02  -0.01
  33   1    -0.01  -0.00  -0.01     0.01   0.00   0.02     0.00  -0.01   0.02
  34   1    -0.02  -0.00  -0.02     0.05   0.01   0.05     0.03  -0.00   0.02
  35   7    -0.00   0.00  -0.00    -0.02  -0.01  -0.01    -0.01  -0.01   0.01
  36   1     0.01   0.00   0.01     0.03   0.01   0.03    -0.00   0.00   0.01
  37   1     0.00   0.00   0.00     0.01   0.00   0.01    -0.00  -0.01   0.01
  38   6     0.00   0.01   0.02     0.01  -0.02  -0.04     0.01  -0.02  -0.02
  39   8    -0.00   0.01  -0.02     0.02   0.04   0.05     0.01   0.00  -0.01
  40   7     0.00  -0.01  -0.02     0.02   0.06   0.13     0.00  -0.01   0.03
  41   1     0.01   0.02   0.03    -0.05  -0.22  -0.31    -0.01  -0.02  -0.02
  42   1     0.01   0.02   0.02    -0.03  -0.10  -0.13    -0.00  -0.02   0.00
  43   7     0.01   0.04   0.05    -0.03  -0.04  -0.05    -0.01  -0.03  -0.04
  44   1     0.01   0.02   0.03     0.00   0.03  -0.01    -0.01  -0.01  -0.04
  45   1     0.01   0.00  -0.00    -0.02   0.05   0.04    -0.02   0.02   0.02
  46   6     0.03   0.02  -0.01     0.01  -0.06   0.11    -0.02   0.02  -0.04
  47   8     0.01   0.03   0.01    -0.01  -0.02   0.08    -0.01  -0.00  -0.03
  48   7     0.01  -0.03   0.06    -0.00   0.15  -0.23     0.01  -0.06   0.10
  49   1    -0.00   0.02  -0.05    -0.00  -0.07   0.16     0.01   0.03  -0.05
  50   1    -0.01   0.07  -0.08     0.04  -0.39   0.55    -0.01   0.17  -0.25
  51   7     0.01  -0.05  -0.00     0.03   0.11  -0.13    -0.02  -0.03   0.07
  52   1     0.01   0.02  -0.05    -0.00  -0.14   0.14    -0.01   0.07  -0.05
  53   1    -0.01   0.00  -0.03    -0.01  -0.04   0.05     0.01   0.02  -0.02
                     37                     38                     39
                        a                      a                      a 
 Frequencies --   388.0095               417.9686               425.0288
 Red. masses --     3.2562                 3.3086                 8.8335
 Frc consts  --     0.0000                 0.0000                 0.0000
 IR Inten    --    90.4191               463.4106                 4.3964
 Raman Activ --     0.0000                 0.0000                 0.0000
 Depolar     --     0.0000                 0.0000                 0.0000
 Atom AN      X      Y      Z        X      Y      Z        X      Y      Z
   1   8     0.03  -0.00   0.01     0.01  -0.00  -0.01     0.25  -0.03   0.06
   2   6     0.04  -0.03   0.01    -0.01   0.01  -0.01     0.04   0.09  -0.11
   3   1     0.03  -0.03   0.02    -0.00   0.01  -0.01    -0.00   0.04  -0.04
   4   1    -0.00  -0.02  -0.02     0.00   0.01   0.00     0.01   0.04  -0.00
   5   6     0.00   0.04   0.08    -0.01  -0.02  -0.01    -0.12  -0.07   0.04
   6   1    -0.02  -0.01   0.04    -0.00  -0.01   0.00    -0.07  -0.04   0.03
   7   1     0.01   0.03   0.05     0.00  -0.01   0.00     0.02  -0.02   0.07
   8   7    -0.00   0.02   0.00    -0.02  -0.01  -0.01    -0.33  -0.11   0.05
   9   6    -0.06   0.00  -0.06     0.00   0.02   0.03    -0.11   0.10   0.36
  10   1    -0.06   0.02  -0.03     0.02   0.00   0.01     0.08   0.07   0.06
  11   1     0.00   0.02   0.01    -0.01   0.00   0.00    -0.03   0.04   0.13
  12   1    -0.01  -0.04  -0.05    -0.00   0.02   0.02    -0.06   0.06   0.19
  13   6     0.02   0.03  -0.07    -0.02   0.00  -0.01    -0.22  -0.04  -0.28
  14   1     0.02   0.03  -0.03    -0.01  -0.01   0.00     0.01  -0.05  -0.06
  15   1    -0.00  -0.01  -0.04    -0.01   0.01   0.00    -0.13   0.04  -0.12
  16   1     0.01   0.01  -0.00     0.00  -0.00  -0.01    -0.00  -0.01  -0.16
  17   6    -0.01  -0.02   0.04     0.02  -0.00  -0.02     0.36   0.02  -0.11
  18   1    -0.00  -0.01   0.01     0.01  -0.01  -0.01     0.16  -0.11  -0.16
  19   1    -0.01  -0.00   0.03     0.01   0.00  -0.01     0.21   0.03  -0.05
  20   1     0.00  -0.02   0.01     0.01   0.01  -0.00     0.16   0.15   0.07
  21   1    -0.03   0.06  -0.05     0.03  -0.03   0.02     0.08  -0.01   0.01
  22   6     0.01   0.00   0.00    -0.02  -0.01  -0.01     0.00   0.00   0.00
  23   8     0.00  -0.00   0.01    -0.03  -0.00  -0.01     0.00   0.00  -0.00
  24   7    -0.00  -0.01   0.01     0.02  -0.01  -0.01    -0.00  -0.00   0.00
  25   1    -0.01   0.00  -0.01     0.01   0.01   0.00    -0.00  -0.00  -0.00
  26   1    -0.03   0.03  -0.01     0.02  -0.02  -0.01    -0.01   0.01  -0.00
  27   7     0.00  -0.00  -0.00     0.03  -0.01   0.04    -0.00   0.00  -0.00
  28   1     0.01  -0.01   0.00    -0.09   0.07  -0.06     0.01  -0.01   0.00
  29   1     0.00   0.00  -0.00     0.01  -0.01   0.01     0.00  -0.00   0.00
  30   6    -0.05  -0.02  -0.04    -0.10  -0.06  -0.07     0.01   0.01   0.01
  31   8    -0.02  -0.02  -0.03    -0.03  -0.06  -0.04     0.01   0.01   0.01
  32   7     0.06   0.02   0.09     0.12   0.06   0.20    -0.01  -0.01  -0.01
  33   1    -0.02  -0.00  -0.04    -0.02   0.00  -0.07     0.01   0.00   0.01
  34   1    -0.10  -0.02  -0.10    -0.21  -0.03  -0.20     0.01   0.00   0.00
  35   7     0.08   0.05   0.07     0.19   0.13   0.13    -0.01  -0.01  -0.01
  36   1    -0.20  -0.10  -0.20    -0.51  -0.25  -0.51     0.03   0.01   0.03
  37   1    -0.03  -0.02  -0.04    -0.02  -0.02  -0.04     0.00  -0.00   0.00
  38   6    -0.02   0.03   0.06     0.02  -0.00  -0.01     0.00  -0.00  -0.00
  39   8    -0.04  -0.07  -0.06     0.03   0.05   0.04    -0.00  -0.01  -0.01
  40   7    -0.03  -0.10  -0.23     0.03   0.04   0.10    -0.00  -0.01  -0.01
  41   1     0.08   0.38   0.54    -0.03  -0.17  -0.24     0.01   0.04   0.05
  42   1     0.04   0.16   0.19    -0.02  -0.07  -0.09     0.00   0.01   0.02
  43   7     0.06   0.04   0.08    -0.03  -0.03  -0.04     0.00  -0.01  -0.00
  44   1     0.02  -0.03   0.05    -0.01   0.02  -0.03    -0.01  -0.01  -0.02
  45   1     0.05  -0.07  -0.07    -0.03   0.04   0.04    -0.00   0.01   0.01
  46   6     0.02  -0.02   0.02    -0.01   0.00  -0.00    -0.03  -0.01  -0.01
  47   8     0.01   0.01   0.01    -0.01  -0.01  -0.00    -0.02  -0.02  -0.02
  48   7    -0.05   0.05  -0.12     0.03  -0.01   0.03     0.02  -0.01  -0.01
  49   1    -0.02  -0.02   0.03     0.01  -0.00   0.01     0.01   0.01   0.02
  50   1    -0.00  -0.21   0.31     0.01   0.05  -0.09     0.02  -0.01  -0.02
  51   7     0.02   0.03  -0.08    -0.01  -0.00   0.03    -0.01   0.03   0.03
  52   1     0.00  -0.09   0.07    -0.00   0.03  -0.02    -0.02   0.02   0.02
  53   1    -0.01  -0.03   0.03     0.01   0.01  -0.01     0.02   0.01   0.01
                     40                     41                     42
                        a                      a                      a 
 Frequencies --   457.5662               463.4902               466.7388
 Red. masses --     4.2347                 6.7989                 7.3634
 Frc consts  --     0.0000                 0.0000                 0.0000
 IR Inten    --    53.9408                26.8715                24.2498
 Raman Activ --     0.0000                 0.0000                 0.0000
 Depolar     --     0.0000                 0.0000                 0.0000
 Atom AN      X      Y      Z        X      Y      Z        X      Y      Z
   1   8    -0.03   0.00  -0.02     0.04  -0.01   0.03     0.06  -0.00   0.03
   2   6     0.06  -0.06   0.08    -0.12   0.11  -0.15    -0.02   0.04  -0.04
   3   1     0.01   0.00   0.01    -0.02  -0.01  -0.01    -0.00  -0.01   0.00
   4   1     0.05  -0.01   0.04    -0.09   0.02  -0.07    -0.03   0.00  -0.03
   5   6     0.04  -0.15   0.07    -0.09   0.28  -0.08    -0.00   0.10  -0.05
   6   1     0.01  -0.06   0.03    -0.05   0.08  -0.02     0.01   0.04  -0.03
   7   1     0.01  -0.02   0.02    -0.01   0.08  -0.00     0.00  -0.00  -0.03
   8   7     0.03  -0.16  -0.05    -0.03   0.25   0.00    -0.06   0.10   0.04
   9   6     0.01   0.13   0.04     0.08  -0.17  -0.07    -0.02  -0.10   0.01
  10   1     0.05   0.08  -0.03    -0.02  -0.11   0.04    -0.03  -0.05   0.02
  11   1    -0.05   0.04   0.06     0.10  -0.06  -0.11     0.03  -0.03  -0.03
  12   1    -0.00   0.08   0.02     0.02  -0.10  -0.01    -0.00  -0.05   0.00
  13   6    -0.02   0.15   0.06    -0.01  -0.29  -0.03    -0.01  -0.10  -0.07
  14   1    -0.09   0.07   0.00     0.08  -0.15   0.04     0.05  -0.04  -0.01
  15   1    -0.01   0.08   0.04     0.03  -0.11   0.01    -0.01  -0.05  -0.04
  16   1     0.06   0.07   0.05    -0.11  -0.14  -0.09    -0.04  -0.05  -0.05
  17   6    -0.07  -0.01  -0.19     0.09  -0.04   0.26     0.06   0.02   0.11
  18   1    -0.03   0.05  -0.05     0.03  -0.10   0.08     0.03  -0.04   0.02
  19   1    -0.05  -0.03  -0.10     0.07   0.04   0.17     0.04   0.02   0.06
  20   1    -0.01   0.02  -0.04     0.02  -0.07   0.04     0.02   0.00   0.03
  21   1    -0.02   0.00  -0.00     0.05  -0.02   0.02    -0.02   0.04  -0.03
  22   6     0.07   0.07   0.01     0.00   0.02   0.01     0.00   0.00   0.01
  23   8     0.09   0.06   0.02     0.04   0.01  -0.04     0.01   0.00   0.00
  24   7    -0.16   0.05   0.04    -0.05   0.05   0.02    -0.01   0.01   0.01
  25   1     0.22  -0.30   0.16     0.18  -0.16   0.13    -0.00  -0.00   0.00
  26   1    -0.18   0.17  -0.04    -0.10   0.13  -0.09     0.00  -0.00   0.01
  27   7    -0.11  -0.06  -0.15    -0.06  -0.01  -0.03    -0.02   0.00  -0.01
  28   1     0.42  -0.34   0.23     0.21  -0.17   0.14     0.03  -0.03   0.01
  29   1    -0.07   0.09  -0.08    -0.03   0.05  -0.03     0.00  -0.00  -0.00
  30   6    -0.01   0.04  -0.03    -0.01   0.01   0.00    -0.00   0.07  -0.02
  31   8     0.03   0.02  -0.04     0.01  -0.00  -0.01     0.06   0.05  -0.06
  32   7     0.05  -0.04   0.02     0.01   0.01   0.02     0.05  -0.06   0.02
  33   1    -0.09  -0.09  -0.05    -0.07  -0.05  -0.06    -0.15  -0.14  -0.07
  34   1     0.10  -0.03   0.02     0.05  -0.00   0.03     0.14  -0.05   0.01
  35   7    -0.04  -0.00   0.05    -0.01   0.01   0.00    -0.08   0.01   0.06
  36   1    -0.11  -0.03  -0.05    -0.05  -0.02  -0.04    -0.09  -0.00   0.00
  37   1     0.02  -0.02   0.04     0.02   0.01   0.02     0.00  -0.03   0.04
  38   6    -0.02  -0.00   0.01     0.02   0.00   0.01    -0.07  -0.01   0.01
  39   8    -0.02   0.01   0.02     0.01   0.00  -0.01    -0.08   0.01   0.03
  40   7     0.02   0.03  -0.01     0.01  -0.01   0.01     0.02   0.07  -0.03
  41   1     0.02  -0.02  -0.04    -0.00   0.00   0.00     0.05  -0.05  -0.08
  42   1    -0.00   0.01  -0.02     0.00  -0.01   0.00    -0.01   0.04  -0.05
  43   7     0.00  -0.03   0.00    -0.01  -0.00  -0.01     0.04  -0.06   0.01
  44   1     0.01   0.00   0.02    -0.01   0.00  -0.02     0.04  -0.02   0.07
  45   1     0.01   0.02   0.01    -0.01   0.02   0.03     0.06  -0.02  -0.04
  46   6     0.01   0.01   0.01    -0.08  -0.06  -0.05     0.17   0.13   0.13
  47   8     0.02   0.00   0.01    -0.11  -0.04  -0.04     0.27   0.07   0.07
  48   7    -0.02   0.00   0.01     0.14  -0.04  -0.03    -0.32   0.12   0.05
  49   1    -0.01  -0.00  -0.01     0.07   0.04   0.04    -0.17  -0.16  -0.01
  50   1    -0.01   0.01   0.01     0.08  -0.05  -0.05    -0.20   0.20   0.02
  51   7     0.00  -0.01  -0.02    -0.01   0.10   0.09     0.01  -0.25  -0.17
  52   1     0.01  -0.01  -0.01    -0.06   0.10   0.05     0.13  -0.30  -0.06
  53   1    -0.01  -0.01  -0.00     0.09   0.02   0.06    -0.23   0.03  -0.24
                     43                     44                     45
                        a                      a                      a 
 Frequencies --   468.9886               473.1714               479.4394
 Red. masses --     4.2364                 7.0243                 5.9368
 Frc consts  --     0.0000                 0.0000                 0.0000
 IR Inten    --    17.6793                 4.9918                 5.6428
 Raman Activ --     0.0000                 0.0000                 0.0000
 Depolar     --     0.0000                 0.0000                 0.0000
 Atom AN      X      Y      Z        X      Y      Z        X      Y      Z
   1   8     0.00  -0.00   0.01     0.08  -0.00   0.05    -0.02   0.00  -0.00
   2   6    -0.01   0.00  -0.01    -0.01   0.04  -0.05    -0.02  -0.00   0.00
   3   1     0.00  -0.01   0.00     0.02  -0.03   0.01    -0.01   0.00  -0.00
   4   1    -0.01  -0.00  -0.01    -0.05  -0.00  -0.05    -0.00   0.00  -0.00
   5   6    -0.03   0.02   0.05    -0.09   0.16   0.11     0.02   0.00  -0.06
   6   1    -0.06  -0.04   0.05    -0.14  -0.06   0.13     0.04   0.03  -0.04
   7   1     0.01   0.07   0.06     0.03   0.18   0.15    -0.01  -0.04  -0.05
   8   7     0.01  -0.02  -0.11    -0.02   0.03  -0.27    -0.01   0.03   0.08
   9   6     0.10   0.07  -0.00     0.26   0.11  -0.03    -0.07  -0.07   0.00
  10   1     0.07   0.03  -0.01     0.15   0.04  -0.02    -0.05  -0.03   0.01
  11   1     0.03   0.02   0.01     0.10   0.03  -0.01    -0.01  -0.02  -0.01
  12   1     0.02   0.03   0.04     0.04   0.03   0.09    -0.01  -0.03  -0.03
  13   6    -0.07   0.01   0.08    -0.19  -0.05   0.16     0.05  -0.03  -0.06
  14   1    -0.07  -0.00   0.03    -0.15  -0.07   0.09     0.06  -0.00  -0.02
  15   1     0.02   0.01   0.06     0.03   0.03   0.15    -0.01  -0.03  -0.05
  16   1    -0.03   0.00   0.04    -0.09  -0.03   0.03     0.00  -0.01  -0.02
  17   6    -0.02  -0.09  -0.07    -0.01  -0.23  -0.09     0.02   0.06   0.07
  18   1    -0.01  -0.02  -0.02    -0.00  -0.10  -0.02     0.01   0.01   0.02
  19   1    -0.01  -0.02   0.00    -0.01  -0.04   0.06     0.01   0.02   0.01
  20   1    -0.00  -0.05  -0.03     0.00  -0.13  -0.05     0.00   0.03   0.02
  21   1     0.01  -0.00   0.00     0.02   0.03  -0.01     0.00  -0.01   0.01
  22   6     0.02  -0.01  -0.01     0.12   0.09  -0.01     0.10   0.07   0.01
  23   8    -0.01   0.01   0.05     0.08   0.13   0.10     0.06   0.10   0.10
  24   7     0.01  -0.04   0.01    -0.14  -0.07   0.09    -0.11  -0.04   0.08
  25   1    -0.18   0.12  -0.13    -0.17  -0.06  -0.11    -0.15  -0.03  -0.10
  26   1     0.07  -0.11   0.11    -0.06  -0.04   0.19    -0.04  -0.04   0.16
  27   7     0.02   0.02  -0.02     0.02  -0.10  -0.18     0.00  -0.08  -0.15
  28   1    -0.10   0.08  -0.09     0.03  -0.03  -0.13     0.04  -0.04  -0.09
  29   1     0.03  -0.06   0.02    -0.07  -0.08  -0.03    -0.05  -0.05  -0.03
  30   6     0.01   0.16  -0.01     0.00  -0.04   0.00    -0.02   0.16  -0.10
  31   8     0.16   0.10  -0.11    -0.05  -0.02   0.04     0.05   0.14  -0.15
  32   7     0.09  -0.11   0.06    -0.04   0.02  -0.03     0.10  -0.24  -0.07
  33   1    -0.43  -0.35  -0.26     0.18   0.13   0.13     0.21   0.00   0.35
  34   1     0.36  -0.09   0.08    -0.14   0.03  -0.04    -0.04  -0.13  -0.23
  35   7    -0.21   0.00   0.10     0.07   0.00  -0.02    -0.12  -0.00   0.25
  36   1    -0.16   0.01   0.02     0.05   0.00  -0.00    -0.14   0.04   0.12
  37   1     0.01  -0.06   0.09    -0.01   0.02  -0.03    -0.05  -0.13   0.04
  38   6     0.01   0.01  -0.02    -0.00  -0.01  -0.00    -0.05   0.01   0.00
  39   8     0.02  -0.02  -0.01    -0.00   0.00  -0.00    -0.05  -0.01   0.04
  40   7    -0.01  -0.01   0.00     0.00  -0.00   0.00     0.02   0.07  -0.04
  41   1    -0.02   0.02   0.03     0.01   0.01   0.01     0.04  -0.03  -0.06
  42   1     0.00  -0.01   0.02     0.00   0.00   0.00    -0.00   0.03  -0.04
  43   7     0.02   0.02  -0.01    -0.01  -0.02  -0.01     0.07  -0.04   0.01
  44   1     0.00  -0.00  -0.01    -0.01  -0.01  -0.02     0.03  -0.03   0.05
  45   1     0.00   0.00  -0.00    -0.01   0.01   0.02     0.06  -0.00  -0.04
  46   6    -0.06  -0.04  -0.04     0.02   0.01   0.02    -0.01   0.02  -0.02
  47   8    -0.08  -0.02  -0.02     0.04   0.00   0.01     0.00   0.01  -0.03
  48   7     0.10  -0.03  -0.01    -0.04   0.03  -0.01     0.00  -0.04   0.06
  49   1     0.05   0.04   0.01    -0.03  -0.06   0.04     0.02   0.08  -0.08
  50   1     0.06  -0.05  -0.01    -0.03   0.05  -0.03     0.02  -0.05   0.05
  51   7    -0.01   0.07   0.05     0.00  -0.04  -0.01    -0.02   0.01  -0.04
  52   1    -0.04   0.08   0.02     0.02  -0.09   0.05    -0.00   0.17  -0.17
  53   1     0.07  -0.00   0.07    -0.03   0.07  -0.12    -0.00  -0.21   0.28
                     46                     47                     48
                        a                      a                      a 
 Frequencies --   480.9152               482.0548               499.3351
 Red. masses --     4.6971                 6.6752                 4.1654
 Frc consts  --     0.0000                 0.0000                 0.0000
 IR Inten    --     5.4014                23.0759                71.5134
 Raman Activ --     0.0000                 0.0000                 0.0000
 Depolar     --     0.0000                 0.0000                 0.0000
 Atom AN      X      Y      Z        X      Y      Z        X      Y      Z
   1   8    -0.03   0.00  -0.02     0.05   0.00   0.04     0.00   0.00   0.00
   2   6    -0.00   0.00   0.00     0.00   0.01  -0.01    -0.01   0.00  -0.01
   3   1    -0.00   0.01  -0.01     0.01  -0.02   0.02    -0.01   0.01  -0.01
   4   1     0.01   0.01   0.01    -0.02  -0.01  -0.03     0.00   0.01   0.01
   5   6    -0.00  -0.03   0.00    -0.04   0.08   0.07    -0.00  -0.03  -0.02
   6   1    -0.00  -0.01   0.00    -0.08  -0.04   0.07    -0.00  -0.00  -0.01
   7   1     0.00  -0.00   0.00     0.02   0.10   0.09    -0.00  -0.02  -0.01
   8   7     0.02  -0.02   0.00    -0.02   0.00  -0.16     0.01  -0.01   0.03
   9   6    -0.00   0.02  -0.00     0.15   0.08  -0.00    -0.03  -0.01   0.00
  10   1    -0.00   0.01  -0.00     0.10   0.03  -0.01    -0.02  -0.00   0.00
  11   1    -0.01   0.01   0.01     0.05   0.03   0.00    -0.02  -0.00   0.00
  12   1     0.00   0.01  -0.01     0.02   0.03   0.07    -0.00   0.00  -0.01
  13   6     0.02   0.01   0.02    -0.13  -0.01   0.11     0.03   0.01  -0.01
  14   1    -0.00   0.01   0.00    -0.10  -0.02   0.05     0.02   0.01  -0.01
  15   1     0.01   0.00   0.01     0.01   0.02   0.09     0.00  -0.01  -0.01
  16   1     0.01   0.01   0.02    -0.05  -0.01   0.03     0.01   0.01   0.00
  17   6    -0.01   0.00  -0.02    -0.01  -0.13  -0.08    -0.00   0.02   0.01
  18   1    -0.01   0.01   0.00    -0.00  -0.05  -0.02    -0.00   0.01   0.00
  19   1    -0.01  -0.00  -0.02    -0.01  -0.02   0.02    -0.00   0.00  -0.01
  20   1    -0.01   0.00  -0.01     0.00  -0.07  -0.03    -0.00   0.01   0.00
  21   1    -0.00   0.00  -0.01     0.01   0.01   0.00     0.00  -0.00   0.00
  22   6    -0.05  -0.04   0.00    -0.15  -0.11  -0.01     0.02   0.12  -0.06
  23   8    -0.05  -0.05  -0.04    -0.12  -0.14  -0.15    -0.05   0.20   0.05
  24   7     0.06   0.02  -0.04     0.17   0.06  -0.12    -0.11  -0.10   0.08
  25   1     0.09   0.01   0.06     0.26   0.03   0.17     0.26  -0.39   0.18
  26   1     0.02   0.03  -0.09     0.05   0.08  -0.27    -0.27   0.25  -0.10
  27   7     0.01   0.05   0.09     0.02   0.12   0.26     0.25  -0.23  -0.00
  28   1    -0.04   0.03   0.05    -0.09   0.09   0.13    -0.34   0.26  -0.37
  29   1     0.04   0.04   0.01     0.09   0.08   0.05    -0.05  -0.11   0.02
  30   6    -0.02   0.13  -0.09    -0.01   0.06  -0.05     0.02   0.03   0.03
  31   8     0.03   0.13  -0.13     0.00   0.07  -0.06     0.06   0.01  -0.01
  32   7     0.09  -0.20  -0.07     0.04  -0.10  -0.04    -0.01  -0.02   0.01
  33   1     0.15  -0.01   0.28     0.09   0.00   0.14    -0.07  -0.05  -0.04
  34   1    -0.01  -0.11  -0.18    -0.01  -0.05  -0.09     0.04  -0.02   0.00
  35   7    -0.12  -0.02   0.21    -0.06  -0.02   0.11    -0.04   0.01  -0.00
  36   1    -0.10   0.05   0.13    -0.03   0.03   0.09     0.04   0.02   0.03
[...]
  44   1    -0.32   0.05   0.12    -0.25   0.04   0.09     0.33  -0.05  -0.14
  45   1     0.42  -0.29   0.38     0.35  -0.25   0.32     0.22  -0.16   0.21
  46   6     0.00   0.00   0.00    -0.00  -0.00  -0.00     0.00   0.00   0.00
  47   8     0.00  -0.00  -0.00     0.00   0.00  -0.00    -0.00  -0.00  -0.00
  48   7    -0.00   0.00   0.00     0.00  -0.00  -0.00    -0.01   0.01   0.00
  49   1     0.01  -0.00  -0.00    -0.01   0.00   0.00     0.06  -0.02  -0.01
  50   1    -0.00  -0.00  -0.00     0.00   0.00   0.00    -0.01  -0.01  -0.01
  51   7    -0.00  -0.00  -0.00     0.00   0.00   0.00     0.00  -0.00  -0.00
  52   1    -0.00  -0.00   0.00     0.00   0.00   0.00    -0.00  -0.00  -0.00
  53   1    -0.00   0.00   0.00     0.00  -0.00  -0.00    -0.00   0.01   0.00
                    142                    143                    144
                        a                      a                      a 
 Frequencies --  3404.2825              3419.0243              3494.3842
 Red. masses --     1.9318                 1.6714                 1.4537
 Frc consts  --     0.0000                 0.0000                 0.0000
 IR Inten    --   244.9997               579.3380                17.7118
 Raman Activ --     0.0000                 0.0000                 0.0000
 Depolar     --     0.0000                 0.0000                 0.0000
 Atom AN      X      Y      Z        X      Y      Z        X      Y      Z
   1   8    -0.00  -0.01  -0.01    -0.00  -0.00  -0.00    -0.00   0.00   0.00
   2   6     0.00   0.00  -0.00     0.00   0.00  -0.00     0.00   0.00   0.00
   3   1    -0.00  -0.00  -0.00     0.00   0.00   0.00    -0.00  -0.00  -0.00
   4   1    -0.00  -0.00   0.00    -0.00  -0.00   0.00     0.00  -0.00  -0.00
   5   6    -0.00  -0.00  -0.00    -0.00  -0.00   0.00    -0.00  -0.00   0.00
   6   1     0.00   0.00   0.00     0.00   0.00   0.00     0.00  -0.00  -0.00
   7   1    -0.00   0.00   0.00     0.00   0.00  -0.00     0.00   0.00  -0.00
   8   7    -0.00  -0.00  -0.00    -0.00  -0.00  -0.00     0.00   0.00   0.00
   9   6    -0.00  -0.00  -0.00    -0.00  -0.00  -0.00    -0.00   0.00  -0.00
  10   1     0.00   0.00   0.00     0.00   0.00   0.00    -0.00  -0.00  -0.00
  11   1    -0.00   0.00  -0.00    -0.00   0.00  -0.00    -0.00  -0.00   0.00
  12   1     0.00  -0.00   0.00     0.00  -0.00   0.00     0.00   0.00   0.00
  13   6     0.00  -0.00  -0.00     0.00  -0.00   0.00    -0.00  -0.00   0.00
  14   1    -0.00   0.00   0.00     0.00  -0.00  -0.00     0.00   0.00  -0.00
  15   1    -0.00  -0.00   0.00     0.00   0.00  -0.00     0.00   0.00  -0.00
  16   1    -0.00   0.00  -0.00    -0.00   0.00  -0.00     0.00  -0.00   0.00
  17   6     0.00   0.00   0.00     0.00  -0.00   0.00    -0.00   0.00   0.00
  18   1    -0.00  -0.00  -0.00    -0.00  -0.00  -0.00     0.00   0.00   0.00
  19   1    -0.00   0.00  -0.00    -0.00   0.00  -0.00    -0.00  -0.00   0.00
  20   1     0.00  -0.00  -0.00     0.00  -0.00  -0.00     0.00   0.00  -0.00
  21   1     0.01   0.04   0.04     0.01   0.02   0.02    -0.00  -0.00  -0.00
  22   6    -0.00  -0.00  -0.00     0.00   0.00   0.00     0.00  -0.00  -0.00
  23   8     0.00   0.00   0.00    -0.00  -0.00  -0.00    -0.00  -0.00   0.00
  24   7     0.00   0.00  -0.00    -0.00  -0.00   0.00     0.00   0.00   0.00
  25   1    -0.01  -0.00   0.01     0.00   0.00  -0.00     0.00   0.00  -0.00
  26   1     0.00   0.00   0.00    -0.00  -0.00  -0.00    -0.00  -0.00  -0.00
  27   7     0.00  -0.00  -0.01    -0.00   0.00   0.00    -0.00  -0.00   0.00
  28   1    -0.00  -0.00  -0.00     0.00   0.00   0.00     0.00   0.01   0.00
  29   1     0.00   0.01   0.02     0.00  -0.00  -0.00    -0.00  -0.00  -0.01
  30   6     0.00   0.00   0.00     0.00   0.00  -0.00     0.00   0.00  -0.00
  31   8     0.00  -0.00  -0.00    -0.00  -0.00   0.00    -0.00  -0.00   0.00
  32   7    -0.00  -0.00   0.00     0.00  -0.00  -0.00     0.15   0.04  -0.10
  33   1    -0.00   0.00   0.00    -0.00   0.00   0.00    -0.41   0.51   0.11
  34   1    -0.00  -0.00   0.00    -0.00  -0.00   0.00    -0.15  -0.65   0.27
  35   7     0.01  -0.00  -0.01    -0.00   0.00   0.00    -0.01  -0.01   0.01
  36   1     0.00   0.01  -0.01    -0.00  -0.00   0.00     0.00   0.03  -0.02
  37   1    -0.04  -0.00   0.03     0.01   0.00  -0.01     0.01   0.00  -0.01
  38   6    -0.01   0.00   0.00     0.00  -0.00  -0.00     0.00   0.00  -0.00
  39   8     0.01  -0.00  -0.00    -0.00  -0.00   0.00    -0.00  -0.00   0.00
  40   7    -0.09   0.01   0.01     0.05  -0.01  -0.01    -0.00   0.00  -0.00
  41   1    -0.04  -0.09   0.07     0.02   0.06  -0.04    -0.00  -0.00   0.00
  42   1     0.39   0.04  -0.11    -0.22  -0.03   0.06     0.00   0.00  -0.00
  43   7    -0.22   0.06   0.02     0.08  -0.02  -0.01    -0.00   0.00   0.00
  44   1     0.67  -0.11  -0.27    -0.26   0.04   0.10     0.00  -0.00  -0.00
  45   1     0.18  -0.12   0.18    -0.05   0.04  -0.06     0.00  -0.00   0.00
  46   6    -0.01  -0.01  -0.01     0.00  -0.00  -0.00     0.00   0.00  -0.00
  47   8     0.00   0.00   0.00     0.00   0.00  -0.00    -0.00  -0.00   0.00
  48   7     0.07  -0.05  -0.02     0.16  -0.11  -0.06    -0.00   0.00   0.00
  49   1    -0.33   0.13   0.06    -0.79   0.30   0.14     0.00  -0.00  -0.00
  50   1     0.08   0.05   0.03     0.21   0.13   0.08    -0.00  -0.00  -0.00
  51   7    -0.00   0.00   0.00     0.00  -0.00  -0.00    -0.00   0.00   0.00
  52   1     0.00   0.00   0.00    -0.02  -0.01  -0.01     0.00   0.00   0.00
  53   1     0.00  -0.01  -0.01    -0.00   0.02   0.02     0.00  -0.00  -0.00
                    145                    146                    147
                        a                      a                      a 
 Frequencies --  3500.0100              3501.1817              3523.0241
 Red. masses --     1.4491                 1.4479                 1.9007
 Frc consts  --     0.0000                 0.0000                 0.0000
 IR Inten    --    21.7415                19.4391                 8.3780
 Raman Activ --     0.0000                 0.0000                 0.0000
 Depolar     --     0.0000                 0.0000                 0.0000
 Atom AN      X      Y      Z        X      Y      Z        X      Y      Z
   1   8     0.00   0.00   0.00     0.00  -0.00  -0.00    -0.00  -0.00  -0.00
   2   6    -0.00  -0.00  -0.00    -0.00   0.00  -0.00     0.00   0.00   0.00
   3   1     0.00   0.00   0.00     0.00  -0.00  -0.00     0.00   0.00   0.00
   4   1     0.00  -0.00  -0.00    -0.00   0.00  -0.00     0.00  -0.00  -0.00
   5   6     0.00   0.00   0.00    -0.00   0.00   0.00    -0.00  -0.00   0.00
   6   1    -0.00  -0.00  -0.00    -0.00   0.00  -0.00    -0.00   0.00  -0.00
   7   1     0.00   0.00   0.00    -0.00  -0.00   0.00     0.00   0.00  -0.00
   8   7     0.00  -0.00  -0.00     0.00   0.00   0.00    -0.00  -0.00   0.00
   9   6     0.00   0.00   0.00     0.00   0.00   0.00    -0.00  -0.00  -0.00
  10   1    -0.00  -0.00  -0.00    -0.00   0.00   0.00    -0.00   0.00   0.00
  11   1    -0.00   0.00   0.00     0.00  -0.00   0.00     0.00  -0.00   0.00
  12   1     0.00   0.00   0.00    -0.00   0.00  -0.00    -0.00   0.00   0.00
  13   6    -0.00   0.00   0.00     0.00   0.00   0.00    -0.00  -0.00   0.00
  14   1     0.00  -0.00  -0.00    -0.00  -0.00  -0.00    -0.00  -0.00   0.00
  15   1     0.00   0.00  -0.00    -0.00  -0.00   0.00     0.00   0.00  -0.00
  16   1    -0.00   0.00   0.00     0.00   0.00   0.00     0.00   0.00   0.00
  17   6    -0.00  -0.00  -0.00     0.00   0.00   0.00    -0.00  -0.00  -0.00
  18   1     0.00   0.00   0.00    -0.00   0.00  -0.00     0.00   0.00   0.00
  19   1    -0.00   0.00   0.00    -0.00   0.00  -0.00     0.00  -0.00   0.00
  20   1     0.00   0.00  -0.00    -0.00  -0.00   0.00     0.00   0.00  -0.00
  21   1    -0.00  -0.00  -0.00    -0.00   0.00   0.00    -0.00   0.00   0.00
  22   6    -0.00  -0.00  -0.00    -0.00  -0.00  -0.00     0.00   0.01   0.00
  23   8     0.00   0.00   0.00     0.00   0.00   0.00    -0.00  -0.00  -0.00
  24   7    -0.00  -0.09  -0.16    -0.00  -0.00  -0.00    -0.02  -0.01   0.01
  25   1    -0.47  -0.15   0.49    -0.00  -0.00   0.00     0.05   0.02  -0.06
  26   1     0.49   0.47   0.11     0.00   0.00   0.00     0.01   0.01   0.00
  27   7     0.00   0.01   0.01     0.00   0.00   0.00     0.14   0.21   0.05
  28   1    -0.03  -0.04  -0.00    -0.00  -0.00  -0.00    -0.52  -0.79  -0.10
  29   1     0.00  -0.01  -0.01    -0.00  -0.00  -0.00     0.01  -0.02  -0.10
  30   6     0.00  -0.00  -0.00    -0.00  -0.00   0.00    -0.00  -0.00   0.00
  31   8    -0.00  -0.00   0.00     0.00   0.00  -0.00    -0.00   0.00  -0.00
  32   7     0.00   0.00  -0.00    -0.00  -0.00   0.00     0.00   0.00  -0.00
  33   1    -0.00   0.00   0.00     0.00  -0.00  -0.00    -0.00   0.00   0.00
  34   1    -0.00  -0.00   0.00     0.00   0.00  -0.00    -0.00  -0.01   0.00
  35   7    -0.00   0.00   0.00     0.00  -0.00  -0.00     0.00   0.01  -0.00
  36   1    -0.00  -0.00   0.00     0.00   0.00  -0.00    -0.00  -0.02   0.01
  37   1     0.00   0.00  -0.00    -0.00  -0.00   0.00     0.00   0.00  -0.00
  38   6    -0.00   0.00  -0.00    -0.00  -0.00   0.00     0.00   0.00  -0.00
  39   8     0.00  -0.00   0.00     0.00   0.00   0.00    -0.00  -0.00  -0.00
  40   7     0.00  -0.00  -0.00     0.00  -0.00   0.00    -0.00  -0.00   0.00
  41   1     0.00   0.00  -0.00     0.00   0.01  -0.01     0.00   0.00  -0.00
  42   1    -0.00  -0.00   0.00    -0.01  -0.00   0.00     0.00   0.00  -0.00
  43   7     0.00  -0.00   0.00     0.00  -0.00  -0.00     0.00  -0.00   0.00
  44   1    -0.00   0.00   0.00    -0.01   0.00   0.00     0.00  -0.00   0.00
  45   1    -0.01   0.01  -0.01    -0.00   0.00  -0.00    -0.00   0.00  -0.00
  46   6    -0.00   0.00   0.00    -0.00   0.00  -0.00     0.00   0.00  -0.00
  47   8     0.00  -0.00  -0.00     0.00   0.00   0.00    -0.00  -0.00   0.00
  48   7     0.00  -0.00  -0.00     0.01  -0.00  -0.00    -0.00   0.00   0.00
  49   1    -0.00   0.00   0.00    -0.03   0.01   0.01     0.00  -0.00  -0.00
  50   1     0.00   0.00   0.00    -0.02  -0.01  -0.01     0.00   0.00   0.00
  51   7     0.00  -0.00  -0.00    -0.17   0.06   0.02     0.00  -0.00  -0.00
  52   1    -0.00  -0.00  -0.00     0.55   0.32   0.33    -0.00  -0.00  -0.00
  53   1    -0.00   0.00   0.00     0.10  -0.53  -0.40    -0.00   0.00   0.00
                    148                    149                    150
                        a                      a                      a 
 Frequencies --  3533.3999              3538.5344              3551.2222
 Red. masses --     1.9383                 2.0165                 1.9997
 Frc consts  --     0.0000                 0.0000                 0.0000
 IR Inten    --    16.4060                29.0073                35.2952
 Raman Activ --     0.0000                 0.0000                 0.0000
 Depolar     --     0.0000                 0.0000                 0.0000
 Atom AN      X      Y      Z        X      Y      Z        X      Y      Z
   1   8    -0.00  -0.00  -0.00    -0.00  -0.00  -0.00    -0.00  -0.00  -0.00
   2   6    -0.00   0.00   0.00     0.00   0.00  -0.00    -0.00   0.00   0.00
   3   1     0.00  -0.00  -0.00     0.00  -0.00  -0.00     0.00   0.00  -0.00
   4   1     0.00   0.00  -0.00    -0.00  -0.00   0.00    -0.00  -0.00   0.00
   5   6    -0.00  -0.00  -0.00    -0.00  -0.00   0.00    -0.00   0.00   0.00
   6   1    -0.00   0.00   0.00     0.00   0.00   0.00    -0.00  -0.00   0.00
   7   1     0.00  -0.00  -0.00     0.00   0.00  -0.00     0.00   0.00  -0.00
   8   7     0.00  -0.00  -0.00    -0.00  -0.00  -0.00    -0.00   0.00   0.00
   9   6    -0.00  -0.00  -0.00    -0.00  -0.00  -0.00    -0.00   0.00  -0.00
  10   1    -0.00   0.00   0.00     0.00   0.00   0.00    -0.00   0.00  -0.00
  11   1     0.00  -0.00  -0.00    -0.00   0.00  -0.00     0.00  -0.00  -0.00
  12   1     0.00   0.00   0.00     0.00  -0.00   0.00     0.00   0.00   0.00
  13   6    -0.00  -0.00  -0.00     0.00  -0.00  -0.00    -0.00  -0.00  -0.00
  14   1    -0.00   0.00   0.00     0.00   0.00   0.00    -0.00   0.00   0.00
  15   1     0.00  -0.00  -0.00     0.00   0.00  -0.00     0.00   0.00  -0.00
  16   1     0.00   0.00  -0.00    -0.00   0.00  -0.00    -0.00   0.00  -0.00
  17   6    -0.00  -0.00   0.00     0.00  -0.00   0.00    -0.00   0.00   0.00
  18   1     0.00   0.00   0.00     0.00  -0.00  -0.00    -0.00  -0.00  -0.00
  19   1    -0.00  -0.00   0.00    -0.00   0.00  -0.00     0.00  -0.00   0.00
  20   1     0.00   0.00  -0.00     0.00  -0.00  -0.00     0.00   0.00  -0.00
  21   1     0.00   0.00   0.00     0.00   0.01   0.01     0.00   0.00   0.00
  22   6    -0.00  -0.00  -0.00     0.00   0.00   0.00    -0.00  -0.00   0.00
  23   8     0.00   0.00   0.00    -0.00  -0.00  -0.00     0.00   0.00  -0.00
  24   7     0.00   0.00  -0.00    -0.00  -0.00  -0.00     0.00   0.00  -0.00
  25   1    -0.00  -0.00   0.00    -0.00  -0.00   0.00    -0.00  -0.00   0.00
  26   1    -0.00  -0.00  -0.00     0.00   0.00   0.00    -0.00  -0.00  -0.00
  27   7    -0.00  -0.01  -0.00     0.00  -0.00  -0.00    -0.00  -0.00  -0.00
  28   1     0.01   0.02   0.00    -0.00  -0.00  -0.00     0.00   0.00   0.00
  29   1    -0.00   0.00   0.00     0.00   0.00   0.00     0.00  -0.00  -0.00
  30   6     0.00   0.00  -0.01     0.00   0.00  -0.00    -0.00   0.00   0.00
  31   8    -0.00  -0.00   0.00    -0.00  -0.00   0.00    -0.00  -0.00   0.00
  32   7     0.01  -0.03  -0.00    -0.00  -0.00   0.00    -0.00   0.00  -0.00
  33   1    -0.06   0.07   0.02    -0.00   0.00   0.00     0.01  -0.01  -0.00
  34   1     0.01   0.04  -0.02     0.00   0.00  -0.00    -0.00  -0.01   0.00
  35   7     0.05   0.21  -0.15     0.00   0.00  -0.00    -0.00  -0.00   0.00
  36   1    -0.08  -0.80   0.50    -0.00  -0.00   0.00     0.00   0.01  -0.01
  37   1    -0.11   0.01   0.08    -0.00   0.00   0.00     0.01   0.00  -0.01
  38   6     0.00   0.00   0.00    -0.00   0.00   0.00    -0.01  -0.00   0.00
  39   8    -0.00  -0.00  -0.00     0.00  -0.00  -0.00     0.00   0.00  -0.00
  40   7    -0.00  -0.00   0.00     0.00  -0.00  -0.00    -0.12  -0.20   0.15
  41   1     0.00   0.01  -0.01     0.00   0.00  -0.00     0.25   0.73  -0.53
  42   1     0.01   0.00  -0.00    -0.00  -0.00   0.00     0.21   0.01  -0.05
  43   7    -0.00  -0.00   0.00     0.00  -0.00  -0.00    -0.00   0.00   0.00
  44   1     0.00  -0.00  -0.00    -0.00   0.00   0.00     0.02  -0.00  -0.01
  45   1    -0.00   0.00  -0.00    -0.00   0.00  -0.00     0.00  -0.00   0.00
  46   6     0.00   0.00   0.00     0.01   0.00  -0.00    -0.00  -0.00  -0.00
  47   8    -0.00  -0.00  -0.00    -0.00  -0.00  -0.00     0.00   0.00   0.00
  48   7    -0.00  -0.00  -0.00     0.25   0.11   0.07    -0.00   0.00   0.00
  49   1     0.00  -0.00  -0.00    -0.22   0.10   0.05     0.01  -0.00  -0.00
  50   1     0.00   0.00   0.00    -0.72  -0.50  -0.30    -0.00  -0.00  -0.00
  51   7    -0.00  -0.00  -0.00    -0.00  -0.02  -0.02     0.00   0.00   0.00
  52   1     0.00   0.00   0.00     0.03   0.01   0.02    -0.01  -0.01  -0.01
  53   1     0.00  -0.00  -0.00    -0.02   0.07   0.05     0.00  -0.00  -0.00
                    151                    152                    153
                        a                      a                      a 
 Frequencies --  3558.2489              3565.6001              3567.9757
 Red. masses --     2.1739                 2.1830                 2.1859
 Frc consts  --     0.0000                 0.0000                 0.0000
 IR Inten    --    11.6713                11.6973                15.3751
 Raman Activ --     0.0000                 0.0000                 0.0000
 Depolar     --     0.0000                 0.0000                 0.0000
 Atom AN      X      Y      Z        X      Y      Z        X      Y      Z
   1   8     0.00  -0.00  -0.00    -0.00   0.00  -0.00     0.00   0.00   0.00
   2   6    -0.00   0.00  -0.00     0.00  -0.00   0.00    -0.00  -0.00   0.00
   3   1     0.00  -0.00  -0.00    -0.00  -0.00  -0.00    -0.00   0.00   0.00
   4   1     0.00   0.00  -0.00    -0.00   0.00  -0.00     0.00   0.00  -0.00
   5   6     0.00   0.00  -0.00     0.00  -0.00  -0.00     0.00   0.00   0.00
   6   1    -0.00   0.00   0.00     0.00   0.00   0.00     0.00  -0.00  -0.00
   7   1    -0.00  -0.00   0.00    -0.00  -0.00  -0.00     0.00  -0.00   0.00
   8   7     0.00  -0.00  -0.00     0.00   0.00   0.00    -0.00   0.00   0.00
   9   6    -0.00  -0.00   0.00    -0.00  -0.00  -0.00     0.00   0.00   0.00
  10   1    -0.00   0.00   0.00     0.00   0.00   0.00     0.00  -0.00  -0.00
  11   1     0.00   0.00  -0.00     0.00  -0.00  -0.00     0.00  -0.00   0.00
  12   1     0.00   0.00  -0.00     0.00  -0.00  -0.00    -0.00   0.00  -0.00
  13   6     0.00   0.00  -0.00     0.00  -0.00  -0.00     0.00   0.00   0.00
  14   1    -0.00   0.00   0.00    -0.00   0.00   0.00     0.00  -0.00  -0.00
  15   1    -0.00  -0.00   0.00    -0.00  -0.00  -0.00     0.00   0.00  -0.00
  16   1     0.00   0.00  -0.00    -0.00   0.00  -0.00     0.00  -0.00   0.00
  17   6    -0.00  -0.00   0.00    -0.00  -0.00   0.00    -0.00   0.00  -0.00
  18   1     0.00   0.00  -0.00     0.00   0.00   0.00    -0.00   0.00   0.00
  19   1     0.00   0.00  -0.00    -0.00   0.00  -0.00     0.00  -0.00   0.00
  20   1     0.00  -0.00  -0.00     0.00  -0.00  -0.00     0.00   0.00   0.00
  21   1     0.00   0.00   0.00     0.00  -0.00  -0.00    -0.00  -0.00  -0.00
  22   6    -0.00  -0.00  -0.00    -0.01  -0.01   0.00     0.00   0.00  -0.00
  23   8     0.00  -0.00  -0.00     0.00   0.00  -0.00    -0.00   0.00   0.00
  24   7     0.00   0.00  -0.00    -0.24  -0.16   0.09     0.00   0.00  -0.00
  25   1    -0.00  -0.00   0.00     0.43   0.13  -0.49    -0.00  -0.00   0.00
  26   1    -0.00  -0.00  -0.00     0.47   0.47   0.14    -0.00  -0.00  -0.00
  27   7    -0.00  -0.00  -0.00    -0.01  -0.01  -0.00     0.00   0.00   0.00
  28   1     0.00   0.00   0.00     0.04   0.05   0.01    -0.00  -0.00  -0.00
  29   1    -0.00   0.00   0.01    -0.00   0.00   0.01     0.00  -0.00  -0.00
  30   6    -0.00   0.01  -0.00     0.00   0.00  -0.00     0.00  -0.00   0.00
  31   8     0.00  -0.00  -0.00     0.00  -0.00   0.00     0.00   0.00  -0.00
  32   7    -0.08   0.29  -0.03    -0.00   0.00   0.00     0.00  -0.00   0.00
  33   1     0.45  -0.52  -0.13     0.00  -0.00  -0.00    -0.00   0.00   0.00
  34   1    -0.16  -0.57   0.25    -0.00  -0.00   0.00     0.00   0.00  -0.00
  35   7     0.01   0.02  -0.02     0.00   0.00  -0.00    -0.00  -0.00   0.00
  36   1    -0.01  -0.09   0.05    -0.00  -0.00   0.00     0.00   0.00  -0.00
  37   1    -0.01   0.00   0.01    -0.00  -0.00   0.00     0.00   0.00  -0.00
  38   6     0.00   0.00  -0.00    -0.00  -0.00   0.00     0.00  -0.00   0.00
  39   8    -0.00  -0.00   0.00     0.00   0.00  -0.00    -0.00   0.00   0.00
  40   7     0.00   0.00  -0.00    -0.00  -0.00   0.00    -0.00  -0.00   0.00
  41   1    -0.00  -0.01   0.00     0.00   0.00  -0.00     0.00   0.01  -0.01
  42   1    -0.00  -0.00   0.00     0.00   0.00  -0.00     0.01   0.00  -0.00
  43   7     0.00  -0.00   0.00    -0.00   0.00  -0.00    -0.00   0.00   0.00
  44   1    -0.00  -0.00   0.00     0.00  -0.00  -0.00     0.01  -0.00  -0.00
  45   1    -0.00   0.00  -0.00     0.01  -0.00   0.00     0.00  -0.00   0.00
  46   6     0.00   0.00   0.00    -0.00  -0.00  -0.00    -0.00  -0.01  -0.01
  47   8    -0.00  -0.00  -0.00    -0.00   0.00   0.00     0.00   0.00   0.00
  48   7     0.00   0.00   0.00    -0.00  -0.00  -0.00    -0.02  -0.01  -0.01
  49   1    -0.00   0.00   0.00     0.00  -0.00  -0.00     0.02  -0.01  -0.01
  50   1    -0.00  -0.00  -0.00     0.00   0.00   0.00     0.07   0.05   0.03
  51   7    -0.00  -0.00  -0.00    -0.00  -0.00  -0.00    -0.10  -0.21  -0.18
  52   1     0.00   0.00   0.00     0.00   0.00   0.00     0.51   0.27   0.29
  53   1    -0.00   0.00   0.00    -0.00   0.00   0.00    -0.13   0.54   0.41
