      -----------------------------------------------------------      
     |                   =====================                   |     
     |                           x T B                           |     
     |                   =====================                   |     
     |                         S. Grimme                         |     
     |          Mulliken Center for Theoretical Chemistry        |     
     |                    University of Bonn                     |     
      -----------------------------------------------------------      

   * xtb version 6.6.1 (unknown-commit) compiled by '@Linux' on 12/27/2023

   xtb is free software: you can redistribute it and/or modify it under
   the terms of the GNU Lesser General Public License as published by
   the Free Software Foundation, either version 3 of the License, or
   (at your option) any later version.
   
   xtb is distributed in the hope that it will be useful,
   but WITHOUT ANY WARRANTY; without even the implied warranty of
   MERCHANTABILITY or FITNESS FOR A PARTICULAR PURPOSE.  See the
   GNU Lesser General Public License for more details.
   
   Cite this work as:
   * C. Bannwarth, E. Caldeweyher, S. Ehlert, A. Hansen, P. Pracht,
     J. Seibert, S. Spicher, S. Grimme, WIREs Comput. Mol. Sci., 2020, 11,
     e01493. DOI: 10.1002/wcms.1493
   
   for GFN2-xTB:
   * C. Bannwarth, S. Ehlert and S. Grimme., J. Chem. Theory Comput., 2019,
     15, 1652-1671. DOI: 10.1021/acs.jctc.8b01176
   for GFN1-xTB:
   * S. Grimme, C. Bannwarth, P. Shushkov, J. Chem. Theory Comput., 2017,
     13, 1989-2009. DOI: 10.1021/acs.jctc.7b00118
   for GFN0-xTB:
   * P. Pracht, E. Caldeweyher, S. Ehlert, S. Grimme, ChemRxiv, 2019, preprint.
     DOI: 10.26434/chemrxiv.8326202.v1
   for GFN-FF:
   * S. Spicher and S. Grimme, Angew. Chem. Int. Ed., 2020, 59, 15665-15673.
     DOI: 10.1002/anie.202004239
   
   for ALPB and GBSA implicit solvation:
   * S. Ehlert, M. Stahn, S. Spicher, S. Grimme, J. Chem. Theory Comput.,
     2021, 17, 4250-4261. DOI: 10.1021/acs.jctc.1c00471
   
   for DFT-D4:
   * E. Caldeweyher, C. Bannwarth and S. Grimme, J. Chem. Phys., 2017,
     147, 034112. DOI: 10.1063/1.4993215
   * E. Caldeweyher, S. Ehlert, A. Hansen, H. Neugebauer, S. Spicher,
     C. Bannwarth and S. Grimme, J. Chem. Phys., 2019, 150, 154122.
     DOI: 10.1063/1.5090222
   * E. Caldeweyher, J.-M. Mewes, S. Ehlert and S. Grimme, Phys. Chem. Chem. Phys.
     2020, 22, 8499-8512. DOI: 10.1039/D0CP00502A
   
   for sTDA-xTB:
   * S. Grimme and C. Bannwarth, J. Chem. Phys., 2016, 145, 054103.
     DOI: 10.1063/1.4959605
   
   in the mass-spec context:
   * V. Asgeirsson, C. Bauer and S. Grimme, Chem. Sci., 2017, 8, 4879.
     DOI: 10.1039/c7sc00601b
   * J. Koopman and S. Grimme, ACS Omega 2019, 4, 12, 15120-15133.
     DOI: 10.1021/acsomega.9b02011
   
   for metadynamics refer to:
   * S. Grimme, J. Chem. Theory Comput., 2019, 155, 2847-2862
     DOI: 10.1021/acs.jctc.9b00143
   
   for SPH calculations refer to:
   * S. Spicher and S. Grimme, J. Chem. Theory Comput., 2021, 17, 1701-1714
     DOI: 10.1021/acs.jctc.0c01306
   
   with help from (in alphabetical order)
   P. Atkinson, C. Bannwarth, F. Bohle, G. Brandenburg, E. Caldeweyher
   M. Checinski, S. Dohm, S. Ehlert, S. Ehrlich, I. Gerasimov, C. Hölzer
   A. Katbashev, J. Koopman, C. Lavigne, S. Lehtola, F. März, M. Müller,
   F. Musil, H. Neugebauer, J. Pisarek, C. Plett, P. Pracht, F. Pultar,
   J. Seibert, P. Shushkov, S. Spicher, M. Stahn, M. Steiner, T. Strunk,
   J. Stückrath, T. Rose, and J. Unsleber
   
 * started run on 2024/01/10 at 15:41:33.585     

           -------------------------------------------------
          |                Calculation Setup                |
           -------------------------------------------------

          program call               : xtb struc.xyz --gfn2 --hess
          hostname                   : swaroop
          coordinate file            : struc.xyz
          omp threads                :                     1

   ID    Z sym.   atoms
    1    8 O      1, 23, 31, 39, 47
    2    6 C      2, 5, 9, 13, 17, 22, 30, 38, 46
    3    1 H      3, 4, 6, 7, 10-12, 14-16, 18-21, 25, 26, 28, 29, 33, 34,
                  36, 37, 41, 42, 44, 45, 49, 50, 52, 53
    4    7 N      8, 24, 27, 32, 35, 40, 43, 48, 51

molecular fragmentation (1/2 indicates fragments):
11111111111111111111122222222222222222222222222222222
# atoms in fragment 1/2:    21    32
 fragment masses (1/2) :      104.17      240.22
CMA distance (Bohr)    :   2.198
constraining FC (au)   :  0.0500

           -------------------------------------------------
          |                 G F N 2 - x T B                 |
           -------------------------------------------------

        Reference                      10.1021/acs.jctc.8b01176
      * Hamiltonian:
        H0-scaling (s, p, d)           1.850000    2.230000    2.230000
        zeta-weighting                 0.500000
      * Dispersion:
        s8                             2.700000
        a1                             0.520000
        a2                             5.000000
        s9                             5.000000
      * Repulsion:
        kExp                           1.500000    1.000000
        rExp                           1.000000
      * Coulomb:
        alpha                          2.000000
        third order                    shell-resolved
        anisotropic                    true
        a3                             3.000000
        a5                             4.000000
        cn-shift                       1.200000
        cn-exp                         4.000000
        max-rad                        5.000000


          ...................................................
          :                      SETUP                      :
          :.................................................:
          :  # basis functions                 122          :
          :  # atomic orbitals                 122          :
          :  # shells                           76          :
          :  # electrons                       140          :
          :  max. iterations                   250          :
          :  Hamiltonian                  GFN2-xTB          :
          :  restarted?                      false          :
          :  GBSA solvation                  false          :
          :  PC potential                    false          :
          :  electronic temp.          300.0000000     K    :
          :  accuracy                    1.0000000          :
          :  -> integral cutoff          0.2500000E+02      :
          :  -> integral neglect         0.1000000E-07      :
          :  -> SCF convergence          0.1000000E-05 Eh   :
          :  -> wf. convergence          0.1000000E-03 e    :
          :  Broyden damping             0.4000000          :
          ...................................................

 iter      E             dE          RMSdq      gap      omega  full diag
   1    -81.5481857 -0.815482E+02  0.437E+00    5.18       0.0  T
   2    -81.8404229 -0.292237E+00  0.236E+00    5.93       1.0  T
   3    -81.8460645 -0.564161E-02  0.116E+00    5.58       1.0  T
   4    -81.8473876 -0.132311E-02  0.240E-01    5.62       1.0  T
   5    -81.8482892 -0.901570E-03  0.916E-02    5.53       1.0  T
   6    -81.8483140 -0.248393E-04  0.265E-02    5.56       1.0  T
   7    -81.8483187 -0.471300E-05  0.751E-03    5.56       1.8  T
   8    -81.8483190 -0.244727E-06  0.256E-03    5.55       5.4  T
   9    -81.8483190 -0.159395E-07  0.845E-04    5.55      16.2  T
  10    -81.8483190 -0.501265E-08  0.164E-04    5.55      83.9  T

   *** convergence criteria satisfied after 10 iterations ***

         #    Occupation            Energy/Eh            Energy/eV
      -------------------------------------------------------------
         1        2.0000           -0.7876519             -21.4331
       ...           ...                  ...                  ...
        64        2.0000           -0.4955821             -13.4855
        65        2.0000           -0.4951232             -13.4730
        66        2.0000           -0.4943413             -13.4517
        67        2.0000           -0.4899262             -13.3316
        68        2.0000           -0.4872335             -13.2583
        69        2.0000           -0.4821737             -13.1206
        70        2.0000           -0.4773264             -12.9887 (HOMO)
        71                         -0.2732569              -7.4357 (LUMO)
        72                         -0.2663417              -7.2475
        73                         -0.2661806              -7.2431
        74                         -0.2501116              -6.8059
        75                         -0.1396823              -3.8009
       ...                                ...                  ...
       122                          0.5625224              15.3070
      -------------------------------------------------------------
                  HL-Gap            0.2040695 Eh            5.5530 eV
             Fermi-level           -0.3752917 Eh          -10.2122 eV

 SCC (total)                   0 d,  0 h,  0 min,  0.096 sec
 SCC setup                      ...        0 min,  0.000 sec (  0.301%)
 Dispersion                     ...        0 min,  0.001 sec (  0.611%)
 classical contributions        ...        0 min,  0.000 sec (  0.187%)
 integral evaluation            ...        0 min,  0.008 sec (  7.928%)
 iterations                     ...        0 min,  0.060 sec ( 62.469%)
 molecular gradient             ...        0 min,  0.027 sec ( 28.208%)
 printout                       ...        0 min,  0.000 sec (  0.284%)

         :::::::::::::::::::::::::::::::::::::::::::::::::::::
         ::                     SUMMARY                     ::
         :::::::::::::::::::::::::::::::::::::::::::::::::::::
         :: total energy             -80.932149316944 Eh    ::
         :: gradient norm              0.000036420464 Eh/a0 ::
         :: HOMO-LUMO gap              5.553013588487 eV    ::
         ::.................................................::
         :: SCC energy               -81.848319007332 Eh    ::
         :: -> isotropic ES            0.291256735642 Eh    ::
         :: -> anisotropic ES         -0.028514664943 Eh    ::
         :: -> anisotropic XC          0.020530002841 Eh    ::
         :: -> dispersion             -0.042570250518 Eh    ::
         :: repulsion energy           0.915048875533 Eh    ::
         :: add. restraining           0.000000000000 Eh    ::
         :: total charge               1.000000000000 e     ::
         :::::::::::::::::::::::::::::::::::::::::::::::::::::

           ------------------------------------------------- 
          |                Numerical Hessian                |
           ------------------------------------------------- 
step length          :   0.00500
SCC accuracy         :   0.30000
Hessian scale factor :   1.00000
frozen atoms in %    :   0.00000    0
RMS gradient         :   0.00004
estimated CPU  time      0.24 min
estimated wall time      0.24 min

writing file <hessian>.

 projected vibrational frequencies (cm⁻¹)
eigval :       -0.00    -0.00     0.00     0.00     0.00     0.00
eigval :        7.43    13.87    16.02    21.45    29.34    40.00
eigval :       40.37    44.39    46.66    52.95    58.51    69.60
eigval :       75.04    82.18    90.58    95.70   101.51   106.84
eigval :      122.64   128.07   135.73   139.63   163.46   170.45
eigval :      193.15   212.09   229.46   238.33   255.90   259.54
eigval :      276.59   291.99   321.27   336.56   338.99   364.56
eigval :      377.02   380.12   398.35   435.48   445.01   456.22
eigval :      459.62   463.11   471.04   474.91   476.58   477.85
eigval :      482.19   486.98   501.26   505.72   532.04   540.25
eigval :      542.27   547.34   553.92   613.33   654.09   673.20
eigval :      674.48   675.82   685.44   732.29   765.08   798.08
eigval :      915.62   930.25   948.26   961.57   963.84   965.76
eigval :      995.10   997.64  1007.38  1016.38  1018.43  1029.13
eigval :     1030.77  1040.45  1045.43  1081.87  1084.18  1087.09
eigval :     1089.53  1096.05  1116.74  1131.82  1186.03  1230.91
eigval :     1248.45  1278.30  1291.71  1323.57  1344.18  1351.03
eigval :     1354.72  1358.12  1370.13  1382.37  1402.78  1411.71
eigval :     1415.75  1437.18  1445.44  1446.58  1447.62  1451.10
eigval :     1456.32  1458.33  1461.86  1464.45  1473.69  1480.67
eigval :     1483.30  1495.96  1500.90  1511.49  1513.90  1660.00
eigval :     1690.34  1715.05  1727.97  2889.80  2981.49  2994.06
eigval :     3012.45  3035.85  3041.87  3042.52  3045.92  3048.31
eigval :     3051.70  3053.40  3056.91  3067.67  3142.97  3228.98
eigval :     3271.86  3368.26  3498.49  3498.73  3498.80  3499.79
eigval :     3502.42  3518.85  3539.61  3539.74  3562.64  3565.33
eigval :     3566.18  3566.53  3568.09
           -------------------------------------------------
          |                Property Printout                |
           -------------------------------------------------

    * Orbital Energies and Occupations

         #    Occupation            Energy/Eh            Energy/eV
      -------------------------------------------------------------
         1        2.0000           -0.7876522             -21.4331
       ...           ...                  ...                  ...
        58        2.0000           -0.5056100             -13.7583
        59        2.0000           -0.5043483             -13.7240
        60        2.0000           -0.5034091             -13.6985
        61        2.0000           -0.5025879             -13.6761
        62        2.0000           -0.5007196             -13.6253
        63        2.0000           -0.4979770             -13.5506
        64        2.0000           -0.4955827             -13.4855
        65        2.0000           -0.4951250             -13.4730
        66        2.0000           -0.4943418             -13.4517
        67        2.0000           -0.4899264             -13.3316
        68        2.0000           -0.4872349             -13.2583
        69        2.0000           -0.4821750             -13.1206
        70        2.0000           -0.4773278             -12.9888 (HOMO)
        71                         -0.2732580              -7.4357 (LUMO)
        72                         -0.2663441              -7.2476
        73                         -0.2661812              -7.2432
        74                         -0.2501133              -6.8059
        75                         -0.1396817              -3.8009
        76                         -0.0987661              -2.6876
        77                         -0.0952176              -2.5910
        78                         -0.0804343              -2.1887
        79                         -0.0761047              -2.0709
        80                         -0.0742434              -2.0203
        81                         -0.0623459              -1.6965
       ...                                ...                  ...
       122                          0.5625209              15.3070
      -------------------------------------------------------------
                  HL-Gap            0.2040699 Eh            5.5530 eV
             Fermi-level           -0.3752929 Eh          -10.2122 eV

     #   Z          covCN         q      C6AA      α(0)
     1   8 O        1.653    -0.473    22.326     6.378
     2   6 C        3.673     0.068    19.664     6.355
     3   1 H        0.924     0.058     2.228     2.334
     4   1 H        0.923     0.043     2.407     2.426
     5   6 C        3.771    -0.067    21.817     6.656
     6   1 H        0.924     0.125     1.572     1.961
     7   1 H        0.924     0.106     1.732     2.058
     8   7 N        3.624     0.159    18.564     6.399
     9   6 C        3.722    -0.108    22.682     6.802
    10   1 H        0.925     0.122     1.595     1.975
    11   1 H        0.925     0.075     2.026     2.226
    12   1 H        0.925     0.104     1.746     2.066
    13   6 C        3.738    -0.117    22.826     6.817
    14   1 H        0.925     0.123     1.587     1.970
    15   1 H        0.925     0.112     1.676     2.024
    16   1 H        0.925     0.080     1.979     2.200
    17   6 C        3.722    -0.119    22.895     6.834
    18   1 H        0.925     0.114     1.666     2.019
    19   1 H        0.925     0.118     1.627     1.995
    20   1 H        0.925     0.079     1.988     2.205
    21   1 H        0.803     0.330     0.637     1.254
    22   6 C        2.675     0.342    21.186     7.532
    23   8 O        0.861    -0.534    24.544     6.642
    24   7 N        2.645    -0.290    27.477     7.785
    25   1 H        0.860     0.200     1.104     1.646
    26   1 H        0.861     0.184     1.189     1.708
    27   7 N        2.644    -0.303    27.807     7.832
    28   1 H        0.861     0.181     1.210     1.723
    29   1 H        0.860     0.241     0.918     1.501
    30   6 C        2.675     0.346    21.131     7.522
    31   8 O        0.860    -0.519    24.205     6.596
    32   7 N        2.646    -0.291    27.502     7.789
    33   1 H        0.860     0.200     1.108     1.649
    34   1 H        0.861     0.186     1.181     1.703
    35   7 N        2.646    -0.290    27.467     7.784
    36   1 H        0.861     0.186     1.181     1.702
    37   1 H        0.860     0.199     1.109     1.649
    38   6 C        2.675     0.343    21.176     7.530
    39   8 O        0.860    -0.527    24.399     6.623
    40   7 N        2.645    -0.294    27.591     7.801
    41   1 H        0.860     0.197     1.121     1.659
    42   1 H        0.861     0.180     1.215     1.726
    43   7 N        2.644    -0.307    27.895     7.844
    44   1 H        0.861     0.175     1.240     1.745
    45   1 H        0.860     0.232     0.957     1.533
    46   6 C        2.675     0.343    21.175     7.530
    47   8 O        0.861    -0.527    24.393     6.622
    48   7 N        2.643    -0.316    28.146     7.879
    49   1 H        0.859     0.244     0.906     1.491
    50   1 H        0.860     0.177     1.234     1.740
    51   7 N        2.644    -0.284    27.323     7.763
    52   1 H        0.861     0.187     1.177     1.699
    53   1 H        0.860     0.205     1.078     1.627

 Mol. C6AA /au·bohr⁶  :      21787.924372
 Mol. C8AA /au·bohr⁸  :     454151.358323
 Mol. α(0) /au        :        220.530275


Wiberg/Mayer (AO) data.
largest (>0.10) Wiberg bond orders for each atom

 ---------------------------------------------------------------------------
     #   Z sym  total        # sym  WBO       # sym  WBO       # sym  WBO
 ---------------------------------------------------------------------------
     1   8 O    1.955 --     2 C    0.998    21 H    0.828
     2   6 C    3.960 --     5 C    1.007     1 O    0.998     4 H    0.964
                             3 H    0.958
     3   1 H    0.997 --     2 C    0.958
     4   1 H    0.998 --     2 C    0.964
     5   6 C    3.926 --     2 C    1.007     7 H    0.957     6 H    0.947
                             8 N    0.933
     6   1 H    0.984 --     5 C    0.947
     7   1 H    0.989 --     5 C    0.957
     8   7 N    3.823 --     9 C    0.960    17 C    0.958    13 C    0.955
                             5 C    0.933
     9   6 C    3.926 --    11 H    0.979    12 H    0.969    10 H    0.962
                             8 N    0.960
    10   1 H    0.985 --     9 C    0.962
    11   1 H    0.994 --     9 C    0.979
    12   1 H    0.989 --     9 C    0.969
    13   6 C    3.919 --    16 H    0.978    15 H    0.965    14 H    0.964
                             8 N    0.955
    14   1 H    0.985 --    13 C    0.964
    15   1 H    0.987 --    13 C    0.965
    16   1 H    0.993 --    13 C    0.978
    17   6 C    3.922 --    20 H    0.978    18 H    0.966     8 N    0.958
                            19 H    0.956
    18   1 H    0.987 --    17 C    0.966
    19   1 H    0.986 --    17 C    0.956
    20   1 H    0.994 --    17 C    0.978
    21   1 H    0.891 --     1 O    0.828
    22   6 C    3.960 --    23 O    1.479    27 N    1.261    24 N    1.208
    23   8 O    1.900 --    22 C    1.479    27 N    0.145    24 N    0.128
    24   7 N    3.322 --    22 C    1.208    26 H    0.947    25 H    0.943
                            23 O    0.128
    25   1 H    0.960 --    24 N    0.943
    26   1 H    0.965 --    24 N    0.947
    27   7 N    3.351 --    22 C    1.261    28 H    0.948    29 H    0.874
                            23 O    0.145
    28   1 H    0.967 --    27 N    0.948
    29   1 H    0.942 --    27 N    0.874
    30   6 C    3.959 --    31 O    1.543    35 N    1.205    32 N    1.204
    31   8 O    1.900 --    30 C    1.543    32 N    0.144    35 N    0.144
    32   7 N    3.320 --    30 C    1.204    34 H    0.947    33 H    0.943
                            31 O    0.144
    33   1 H    0.960 --    32 N    0.943
    34   1 H    0.965 --    32 N    0.947
    35   7 N    3.319 --    30 C    1.205    36 H    0.947    37 H    0.943
                            31 O    0.144
    36   1 H    0.965 --    35 N    0.947
    37   1 H    0.960 --    35 N    0.943
    38   6 C    3.959 --    39 O    1.529    43 N    1.228    40 N    1.196
    39   8 O    1.892 --    38 C    1.529    43 N    0.148    40 N    0.138
    40   7 N    3.311 --    38 C    1.196    42 H    0.949    41 H    0.944
                            39 O    0.138
    41   1 H    0.961 --    40 N    0.944
    42   1 H    0.967 --    40 N    0.949
    43   7 N    3.326 --    38 C    1.228    44 H    0.950    45 H    0.898
                            39 O    0.148
    44   1 H    0.969 --    43 N    0.950
    45   1 H    0.946 --    43 N    0.898
    46   6 C    3.959 --    47 O    1.475    48 N    1.241    51 N    1.226
    47   8 O    1.910 --    46 C    1.475    48 N    0.136    51 N    0.131
    48   7 N    3.320 --    46 C    1.241    50 H    0.949    49 H    0.862
                            47 O    0.136
    49   1 H    0.940 --    48 N    0.862
    50   1 H    0.969 --    48 N    0.949
    51   7 N    3.341 --    46 C    1.226    52 H    0.946    53 H    0.941
                            47 O    0.131
    52   1 H    0.965 --    51 N    0.946
    53   1 H    0.958 --    51 N    0.941
 ---------------------------------------------------------------------------

Topologies differ in total number of bonds
Writing topology from bond orders to xtbtopo.mol

molecular dipole:
                 x           y           z       tot (Debye)
 q only:       -0.281       0.996      -0.179
   full:        0.221       0.898      -0.352       2.516
molecular quadrupole (traceless):
                xx          xy          yy          xz          yz          zz
 q only:        4.792      -0.912       6.622      17.143     -33.867     -11.413
  q+dip:        7.163       1.161       7.282      22.837     -39.941     -14.445
   full:        7.314       0.720       7.059      22.959     -40.187     -14.373

           -------------------------------------------------
          |               Frequency Printout                |
           -------------------------------------------------
 projected vibrational frequencies (cm⁻¹)
eigval :       -0.00    -0.00     0.00     0.00     0.00     0.00
eigval :        7.43    13.87    16.02    21.45    29.34    40.00
eigval :       40.37    44.39    46.66    52.95    58.51    69.60
eigval :       75.04    82.18    90.58    95.70   101.51   106.84
eigval :      122.64   128.07   135.73   139.63   163.46   170.45
eigval :      193.15   212.09   229.46   238.33   255.90   259.54
eigval :      276.59   291.99   321.27   336.56   338.99   364.56
eigval :      377.02   380.12   398.35   435.48   445.01   456.22
eigval :      459.62   463.11   471.04   474.91   476.58   477.85
eigval :      482.19   486.98   501.26   505.72   532.04   540.25
eigval :      542.27   547.34   553.92   613.33   654.09   673.20
eigval :      674.48   675.82   685.44   732.29   765.08   798.08
eigval :      915.62   930.25   948.26   961.57   963.84   965.76
eigval :      995.10   997.64  1007.38  1016.38  1018.43  1029.13
eigval :     1030.77  1040.45  1045.43  1081.87  1084.18  1087.09
eigval :     1089.53  1096.05  1116.74  1131.82  1186.03  1230.91
eigval :     1248.45  1278.30  1291.71  1323.57  1344.18  1351.03
eigval :     1354.72  1358.12  1370.13  1382.37  1402.78  1411.71
eigval :     1415.75  1437.18  1445.44  1446.58  1447.62  1451.10
eigval :     1456.32  1458.33  1461.86  1464.45  1473.69  1480.67
eigval :     1483.30  1495.96  1500.90  1511.49  1513.90  1660.00
eigval :     1690.34  1715.05  1727.97  2889.80  2981.49  2994.06
eigval :     3012.45  3035.85  3041.87  3042.52  3045.92  3048.31
eigval :     3051.70  3053.40  3056.91  3067.67  3142.97  3228.98
eigval :     3271.86  3368.26  3498.49  3498.73  3498.80  3499.79
eigval :     3502.42  3518.85  3539.61  3539.74  3562.64  3565.33
eigval :     3566.18  3566.53  3568.09
 reduced masses (amu)
   1: 12.84   2: 12.50   3: 12.62   4: 12.75   5: 12.40   6: 12.59   7: 11.20   8: 12.29
   9: 12.03  10: 11.98  11: 12.34  12: 12.64  13: 12.64  14: 12.55  15: 12.86  16: 12.64
  17: 13.25  18: 13.31  19: 13.17  20: 13.28  21: 11.55  22: 13.04  23: 11.07  24: 12.73
  25: 11.87  26: 12.56  27: 11.85  28: 11.62  29: 11.06  30: 13.38  31: 12.61  32:  3.53
  33: 11.79  34:  2.82  35:  2.55  36:  2.22  37:  6.27  38:  4.53  39:  6.72  40:  5.31
  41:  3.67  42:  2.37  43:  3.31  44:  6.88  45:  3.39  46:  8.60  47:  1.77  48:  8.38
  49:  8.37  50:  7.91  51:  6.29  52:  3.12  53:  2.91  54:  4.55  55:  7.41  56:  8.16
  57:  3.38  58:  2.35  59:  9.45  60:  8.80  61: 11.07  62: 11.07  63: 11.73  64:  2.58
  65:  2.62  66: 11.62  67: 11.96  68: 11.88  69:  9.38  70:  2.09  71:  9.34  72:  2.64
  73:  8.06  74:  7.45  75:  5.22  76:  4.98  77:  4.88  78:  5.33  79:  8.88  80:  7.63
  81:  9.34  82:  9.11  83:  7.44  84:  8.57  85:  6.84  86:  4.04  87:  5.77  88:  9.57
  89:  9.06  90:  8.77  91:  8.06  92:  7.58  93:  4.56  94:  7.33  95:  3.53  96:  5.33
  97:  5.90  98:  7.92  99:  2.77 100:  6.18 101:  4.01 102:  6.02 103:  4.94 104:  5.56
 105:  4.49 106:  4.59 107:  2.50 108:  2.45 109:  2.13 110:  2.55 111:  3.12 112:  2.13
 113:  3.05 114:  1.99 115:  2.90 116:  2.46 117:  2.03 118:  1.96 119:  1.68 120:  1.61
 121:  1.82 122:  8.08 123:  8.13 124:  9.21 125:  9.46 126: 12.30 127: 12.70 128: 12.77
 129: 12.84 130:  1.77 131:  1.69 132:  1.70 133:  1.81 134:  1.64 135:  1.85 136:  1.58
 137:  1.86 138:  1.61 139:  1.65 140:  1.89 141:  1.77 142:  1.73 143:  1.82 144:  1.81
 145:  1.87 146:  1.69 147:  1.44 148:  1.45 149:  1.45 150:  1.45 151:  1.46 152:  1.88
 153:  1.91 154:  1.97 155:  2.19 156:  2.18 157:  2.18 158:  2.19 159:  2.18
 IR intensities (km·mol⁻¹)
   1:  1.42   2:  0.04   3:  2.76   4:  2.82   5:  1.52   6:  0.24   7:  0.02   8:  0.51
   9:  1.50  10:  1.79  11:  0.48  12:  3.05  13:  2.19  14:  2.65  15:  0.88  16:  1.20
  17:  6.56  18:  4.02  19:  3.18  20:  5.14  21:  3.66  22:  2.95  23:  3.48  24: 14.44
  25:  0.31  26:  6.17  27: 55.81  28: 11.85  29:  2.69  30: 11.26  31: 58.11  32: 12.97
  33:  0.25  34:216.76  35:101.43  36:145.59  37:  1.64  38:  1.04  39:  4.17  40:  1.20
  41:481.90  42:  3.84  43:233.44  44:  8.25  45:334.39  46:  8.12  47:  7.04  48:  5.36
  49: 26.86  50: 11.44  51: 20.72  52: 61.82  53: 52.96  54: 42.88  55: 40.43  56: 44.01
  57: 39.59  58:  1.91  59: 39.99  60: 15.04  61: 18.71  62:  7.84  63: 38.10  64:106.22
  65:108.58  66: 26.10  67: 35.58  68: 54.20  69:134.04  70:148.84  71:  0.23  72:388.70
  73:  8.26  74:  7.12  75:  1.69  76:  1.74  77:  7.15  78:  1.92  79:  0.17  80: 12.86
  81:  1.71  82:  3.08  83: 34.34  84:  8.34  85:  9.80  86:  0.49  87:  3.28  88:  1.95
  89:  1.54  90:  1.80  91: 60.51  92:  4.59  93:  5.12  94: 23.26  95:  2.64  96:  5.32
  97:  1.01  98:  2.32  99:103.94 100:  5.85 101: 27.62 102: 80.18 103:245.02 104: 48.55
 105: 80.73 106:  3.12 107: 11.36 108: 11.99 109: 11.45 110: 15.04 111: 11.29 112:  1.60
 113:  4.78 114:  1.94 115:  5.19 116:  5.07 117:  7.52 118: 15.28 119:  3.45 120: 26.25
 121: 22.86 122:373.51 123:527.94 124:281.16 125:736.34 126:418.74 127:****** 128:993.92
 129:690.64 130: 38.46 131: 29.47 132:  1.39 133:  8.55 134: 20.69 135:  7.73 136:  8.16
 137:  5.14 138: 28.43 139:  5.66 140: 50.51 141: 23.91 142:  6.54 143:425.30 144:954.23
 145:****** 146:369.32 147: 37.53 148: 24.54 149: 15.76 150: 22.58 151:  7.42 152: 12.02
 153: 19.82 154: 15.64 155: 13.07 156: 10.69 157:  8.65 158: 23.98 159: 11.29
 Raman intensities (amu)
Molecule has no symmetry elements
It seems to be the C1 point group
   1:  0.00   2:  0.00   3:  0.00   4:  0.00   5:  0.00   6:  0.00   7:  0.00   8:  0.00
   9:  0.00  10:  0.00  11:  0.00  12:  0.00  13:  0.00  14:  0.00  15:  0.00  16:  0.00
  17:  0.00  18:  0.00  19:  0.00  20:  0.00  21:  0.00  22:  0.00  23:  0.00  24:  0.00
  25:  0.00  26:  0.00  27:  0.00  28:  0.00  29:  0.00  30:  0.00  31:  0.00  32:  0.00
  33:  0.00  34:  0.00  35:  0.00  36:  0.00  37:  0.00  38:  0.00  39:  0.00  40:  0.00
  41:  0.00  42:  0.00  43:  0.00  44:  0.00  45:  0.00  46:  0.00  47:  0.00  48:  0.00
  49:  0.00  50:  0.00  51:  0.00  52:  0.00  53:  0.00  54:  0.00  55:  0.00  56:  0.00
  57:  0.00  58:  0.00  59:  0.00  60:  0.00  61:  0.00  62:  0.00  63:  0.00  64:  0.00
  65:  0.00  66:  0.00  67:  0.00  68:  0.00  69:  0.00  70:  0.00  71:  0.00  72:  0.00
  73:  0.00  74:  0.00  75:  0.00  76:  0.00  77:  0.00  78:  0.00  79:  0.00  80:  0.00
  81:  0.00  82:  0.00  83:  0.00  84:  0.00  85:  0.00  86:  0.00  87:  0.00  88:  0.00
  89:  0.00  90:  0.00  91:  0.00  92:  0.00  93:  0.00  94:  0.00  95:  0.00  96:  0.00
  97:  0.00  98:  0.00  99:  0.00 100:  0.00 101:  0.00 102:  0.00 103:  0.00 104:  0.00
 105:  0.00 106:  0.00 107:  0.00 108:  0.00 109:  0.00 110:  0.00 111:  0.00 112:  0.00
 113:  0.00 114:  0.00 115:  0.00 116:  0.00 117:  0.00 118:  0.00 119:  0.00 120:  0.00
 121:  0.00 122:  0.00 123:  0.00 124:  0.00 125:  0.00 126:  0.00 127:  0.00 128:  0.00
 129:  0.00 130:  0.00 131:  0.00 132:  0.00 133:  0.00 134:  0.00 135:  0.00 136:  0.00
 137:  0.00 138:  0.00 139:  0.00 140:  0.00 141:  0.00 142:  0.00 143:  0.00 144:  0.00
 145:  0.00 146:  0.00 147:  0.00 148:  0.00 149:  0.00 150:  0.00 151:  0.00 152:  0.00
 153:  0.00 154:  0.00 155:  0.00 156:  0.00 157:  0.00 158:  0.00 159:  0.00
 output can be read by thermo (or use thermo option).
 writing <g98.out> molden fake output.
 recommended (thermochemical) frequency scaling factor: 1.0
           -------------------------------------------------
          |             Thermodynamic Functions             |
           -------------------------------------------------

c1  symmetry found (for desy threshold:  0.10E+00) used in thermo

          ...................................................
          :                      SETUP                      :
          :.................................................:
          :  # frequencies                         153      :
          :  # imaginary freq.                       0      :
          :  linear?                             false      :
          :  only rotor calc.                    false      :
          :  symmetry                               c1      :
          :  rotational number                       1      :
          :  scaling factor                  1.0000000      :
          :  rotor cutoff                   50.0000000 cm⁻¹ :
          :  imag. cutoff                  -20.0000000 cm⁻¹ :
          :.................................................:

    mode    ω/cm⁻¹     T·S(HO)/kcal·mol⁻¹    T·S(FR)/kcal·mol⁻¹   T·S(vib)
   ------------------------------------------------------------------------
       1      7.43    -2.56447 (  0.05%)    -1.62115 ( 99.95%)    -1.62161
       2     13.87    -2.19455 (  0.59%)    -1.43624 ( 99.41%)    -1.44071
       3     16.02    -2.10933 (  1.04%)    -1.39362 ( 98.96%)    -1.40109
       4     21.45    -1.93664 (  3.27%)    -1.30724 ( 96.73%)    -1.32785
       5     29.34    -1.75129 ( 10.59%)    -1.21447 ( 89.41%)    -1.27134
       6     40.00    -1.56805 ( 29.05%)    -1.12265 ( 70.95%)    -1.25204
       7     40.37    -1.56254 ( 29.83%)    -1.11988 ( 70.17%)    -1.25191
       8     44.39    -1.50657 ( 38.31%)    -1.09181 ( 61.69%)    -1.25070
       9     46.66    -1.47704 ( 43.14%)    -1.07698 ( 56.86%)    -1.24955
      10     52.95    -1.40252 ( 55.71%)    -1.03955 ( 44.29%)    -1.24174
      11     58.51    -1.34374 ( 65.21%)    -1.00998 ( 34.79%)    -1.22764
      12     69.60    -1.24172 ( 78.96%)    -0.95857 ( 21.04%)    -1.18216
      13     75.04    -1.19752 ( 83.54%)    -0.93625 ( 16.46%)    -1.15451
      14     82.18    -1.14434 ( 87.95%)    -0.90934 ( 12.05%)    -1.11602
      15     90.58    -1.08748 ( 91.51%)    -0.88049 (  8.49%)    -1.06990
      16     95.70    -1.05547 ( 93.07%)    -0.86422 (  6.93%)    -1.04221
      17    101.51    -1.02120 ( 94.44%)    -0.84676 (  5.56%)    -1.01150
      18    106.84    -0.99149 ( 95.42%)    -0.83159 (  4.58%)    -0.98417
      19    122.64    -0.91184 ( 97.31%)    -0.79074 (  2.69%)    -0.90858
      20    128.07    -0.88694 ( 97.73%)    -0.77791 (  2.27%)    -0.88446
      21    135.73    -0.85367 ( 98.19%)    -0.76070 (  1.81%)    -0.85199
      22    139.63    -0.83750 ( 98.38%)    -0.75232 (  1.62%)    -0.83612
      23    163.46    -0.74815 ( 99.13%)    -0.70562 (  0.87%)    -0.74778
      24    170.45    -0.72464 ( 99.27%)    -0.69322 (  0.73%)    -0.72441
      25    193.15    -0.65514 ( 99.55%)    -0.65618 (  0.45%)    -0.65514
      26    212.09    -0.60392 ( 99.69%)    -0.62847 (  0.31%)    -0.60400
      27    229.46    -0.56147 ( 99.78%)    -0.60516 (  0.22%)    -0.56157
      28    238.33    -0.54124 ( 99.81%)    -0.59393 (  0.19%)    -0.54134
      29    255.90    -0.50375 ( 99.85%)    -0.57285 (  0.15%)    -0.50385
      30    259.54    -0.49638 ( 99.86%)    -0.56867 (  0.14%)    -0.49648
      31    276.59    -0.46352 ( 99.89%)    -0.54982 (  0.11%)    -0.46361
      32    291.99    -0.43601 ( 99.91%)    -0.53377 (  0.09%)    -0.43610
   ------------------------------------------------------------------------

   temp. (K)  partition function   enthalpy   heat capacity  entropy
                                   cal/mol     cal/K/mol   cal/K/mol   J/K/mol
 298.15  VIB  0.634E+18            19732.393    104.742    130.644
         ROT  0.157E+08              888.752      2.981     35.913
         INT  0.997E+25            20621.145    107.723    166.558
         TR   0.618E+28             1481.254      4.968     43.384
         TOT                       22102.3993   112.6908   209.9423   878.3985

       T/K    H(0)-H(T)+PV         H(T)/Eh          T*S/Eh         G(T)/Eh
   ------------------------------------------------------------------------
    298.15    0.352224E-01    0.473848E+00    0.997503E-01    0.374097E+00
   ------------------------------------------------------------------------

         :::::::::::::::::::::::::::::::::::::::::::::::::::::
         ::                  THERMODYNAMIC                  ::
         :::::::::::::::::::::::::::::::::::::::::::::::::::::
         :: total free energy         -80.558051835781 Eh   ::
         ::.................................................::
         :: total energy              -80.932149317156 Eh   ::
         :: zero point energy           0.438625414917 Eh   ::
         :: G(RRHO) w/o ZPVE           -0.064527933541 Eh   ::
         :: G(RRHO) contrib.            0.374097481376 Eh   ::
         :::::::::::::::::::::::::::::::::::::::::::::::::::::

           -------------------------------------------------
          | TOTAL ENERGY              -80.932149317156 Eh   |
          | TOTAL ENTHALPY            -80.458301486922 Eh   |
          | TOTAL FREE ENERGY         -80.558051835781 Eh   |
          | GRADIENT NORM               0.000036435093 Eh/α |
          | HOMO-LUMO GAP               5.553023651033 eV   |
           -------------------------------------------------

------------------------------------------------------------------------
 * finished run on 2024/01/10 at 15:41:47.824     
------------------------------------------------------------------------
 total:
 * wall-time:     0 d,  0 h,  0 min, 14.239 sec
 *  cpu-time:     0 d,  0 h,  0 min, 14.174 sec
 * ratio c/w:     0.995 speedup
 SCF:
 * wall-time:     0 d,  0 h,  0 min,  0.096 sec
 *  cpu-time:     0 d,  0 h,  0 min,  0.056 sec
 * ratio c/w:     0.586 speedup
 analytical hessian:
 * wall-time:     0 d,  0 h,  0 min, 14.116 sec
 *  cpu-time:     0 d,  0 h,  0 min, 14.091 sec
 * ratio c/w:     0.998 speedup

