 Entering Gaussian System
 *********************************************
 Gaussian 98:
 frequency output generated by the xtb code
 *********************************************
                         Standard orientation:
 --------------------------------------------------------------------
  Center     Atomic     Atomic              Coordinates (Angstroms)
  Number     Number      Type              X           Y           Z
 --------------------------------------------------------------------
    1          8             0        2.710828   -0.933812    0.303073
    2          6             0        3.105954    0.333464   -0.127171
    3          1             0        4.020830    0.576409    0.421089
    4          1             0        3.355049    0.325301   -1.198415
    5          6             0        2.049817    1.436126    0.054523
    6          1             0        1.172865    1.220874   -0.562959
    7          1             0        2.496043    2.372199   -0.287353
    8          7             0        1.545964    1.639224    1.438784
    9          6             0        0.628297    0.549728    1.817241
   10          1             0       -0.203725    0.536892    1.114855
   11          1             0        0.262277    0.739910    2.824022
   12          1             0        1.152986   -0.401823    1.783984
   13          6             0        0.780483    2.897693    1.471238
   14          1             0       -0.025845    2.837457    0.742013
   15          1             0        1.426869    3.740315    1.234949
   16          1             0        0.371428    3.026627    2.471907
   17          6             0        2.634343    1.711645    2.423865
   18          1             0        3.352472    2.477596    2.137096
   19          1             0        3.135124    0.749389    2.496551
   20          1             0        2.200208    1.961959    3.391735
   21          1             0        1.971543   -1.242637   -0.278682
   22          6             0        1.342134   -2.508139   -2.325845
   23          8             0        0.878750   -1.743375   -1.472040
   24          7             0        2.608677   -2.975505   -2.214547
   25          1             0        3.116953   -2.779785   -1.368013
   26          1             0        2.967991   -3.680937   -2.831320
   27          7             0        0.643858   -2.895014   -3.401781
   28          1             0        1.058253   -3.479745   -4.104404
   29          1             0       -0.293982   -2.542359   -3.573706
   30          6             0       -0.032863    2.522341    5.656322
   31          8             0        0.414808    2.276915    4.545248
   32          7             0       -1.291513    2.989531    5.840074
   33          1             0       -1.837389    3.227745    5.031591
   34          1             0       -1.621808    3.290077    6.738595
   35          7             0        0.696210    2.346877    6.784861
   36          1             0        0.294097    2.448078    7.698615
   37          1             0        1.595429    1.905895    6.711976
   38          6             0       -3.000297   -2.838713   -3.464050
   39          8             0       -2.071835   -2.221840   -3.978149
   40          7             0       -3.667874   -3.809149   -4.130387
   41          1             0       -3.462112   -3.936819   -5.105663
   42          1             0       -4.504350   -4.226959   -3.765381
   43          7             0       -3.408011   -2.589365   -2.198783
   44          1             0       -4.096316   -3.157294   -1.740234
   45          1             0       -2.869273   -1.935089   -1.651840
   46          6             0       -1.555011    1.071910   -1.689092
   47          8             0       -0.948231    1.566049   -0.743490
   48          7             0       -2.435327    1.795188   -2.426243
   49          1             0       -2.641097    2.738303   -2.151734
   50          1             0       -2.965100    1.381543   -3.170953
   51          7             0       -1.429979   -0.229978   -2.032374
   52          1             0       -1.737034   -0.549347   -2.943023
   53          1             0       -0.619469   -0.731809   -1.671817
 --------------------------------------------------------------------
     1 basis functions        1 primitive gaussians
     1 alpha electrons        1 beta electrons

 Harmonic frequencies (cm**-1), IR intensities (km*mol⁻¹),
 Raman scattering activities (A**4/amu), Raman depolarization ratios,
 reduced masses (AMU), force constants (mDyne/A) and normal coordinates:
                      1                      2                      3
                        a                      a                      a 
 Frequencies --    -4.8942                10.6808                15.3376
 Red. masses --    11.1109                12.4542                11.9062
 Frc consts  --     0.0000                 0.0000                 0.0000
 IR Inten    --     0.1537                 0.9240                 0.4238
 Raman Activ --     0.0000                 0.0000                 0.0000
 Depolar     --     0.0000                 0.0000                 0.0000
 Atom AN      X      Y      Z        X      Y      Z        X      Y      Z
   1   8     0.00  -0.02   0.01    -0.10  -0.09   0.08    -0.09  -0.20   0.03
   2   6     0.01  -0.03   0.00    -0.09  -0.08   0.05    -0.00  -0.19   0.06
   3   1     0.00  -0.01  -0.00    -0.02  -0.02   0.01    -0.00  -0.07   0.02
   4   1     0.00  -0.01   0.00    -0.03  -0.03   0.01     0.01  -0.05   0.02
   5   6     0.02  -0.02   0.00    -0.08  -0.08   0.04     0.05  -0.13   0.05
   6   1     0.00  -0.00   0.00    -0.03  -0.03   0.02     0.01  -0.02   0.01
   7   1     0.01  -0.01  -0.00    -0.03  -0.03  -0.00     0.03  -0.04   0.02
   8   7     0.03  -0.00   0.00    -0.05  -0.04   0.05     0.05  -0.12   0.05
   9   6     0.02   0.00   0.01    -0.02  -0.03   0.11    -0.01  -0.07   0.03
  10   1     0.01   0.00   0.01    -0.01  -0.02   0.04    -0.00  -0.01   0.01
  11   1     0.01   0.00   0.01     0.00  -0.00   0.03    -0.00  -0.02   0.01
  12   1     0.01   0.00   0.00    -0.01  -0.01   0.04    -0.02  -0.03   0.01
  13   6     0.04   0.00  -0.00    -0.06  -0.04   0.03     0.11  -0.07   0.03
  14   1     0.01   0.00   0.00    -0.02  -0.02   0.02     0.03  -0.01   0.01
  15   1     0.01  -0.00  -0.00    -0.02  -0.01  -0.01     0.04  -0.03   0.01
  16   1     0.01   0.00  -0.00    -0.01  -0.00   0.01     0.03  -0.02   0.01
  17   6     0.03  -0.00  -0.00    -0.02   0.01   0.01     0.04  -0.16   0.06
  18   1     0.01  -0.00  -0.00    -0.01   0.00  -0.01     0.02  -0.06   0.02
  19   1     0.01  -0.00  -0.00    -0.00   0.00   0.01    -0.00  -0.05   0.02
  20   1     0.01   0.00  -0.00     0.00   0.01   0.00     0.01  -0.04   0.01
  21   1    -0.00  -0.00   0.00    -0.02  -0.02   0.02    -0.02  -0.04  -0.00
  22   6    -0.02  -0.02   0.02    -0.00  -0.00  -0.02    -0.01   0.12  -0.19
  23   8    -0.01  -0.01   0.01    -0.05  -0.08   0.02    -0.05  -0.02  -0.10
  24   7    -0.03  -0.04   0.03     0.00   0.02  -0.01     0.02   0.18  -0.27
  25   1    -0.01  -0.01   0.01    -0.01  -0.01   0.01    -0.00   0.02  -0.06
  26   1    -0.01  -0.01   0.01     0.01   0.02  -0.01     0.01   0.07  -0.10
  27   7    -0.02  -0.01   0.02     0.04   0.06  -0.07     0.02   0.25  -0.26
  28   1    -0.01  -0.01   0.01     0.02   0.03  -0.03     0.01   0.09  -0.09
  29   1    -0.00   0.00   0.00     0.01   0.02  -0.02    -0.01   0.05  -0.05
  30   6    -0.01  -0.01  -0.02     0.14   0.19   0.08    -0.08   0.10  -0.05
  31   8     0.06   0.01   0.00     0.09   0.13   0.08     0.00  -0.00   0.00
  32   7    -0.23  -0.60  -0.03     0.17   0.25   0.13    -0.09   0.15  -0.21
  33   1    -0.10  -0.27  -0.01     0.03   0.05   0.04    -0.01   0.02  -0.07
  34   1    -0.09  -0.16  -0.02     0.06   0.08   0.03    -0.05   0.06  -0.07
  35   7     0.14   0.56  -0.02     0.21   0.26   0.05    -0.18   0.20   0.02
  36   1     0.04   0.14  -0.01     0.07   0.09   0.02    -0.07   0.08  -0.01
  37   1     0.10   0.27   0.00     0.05   0.06   0.01    -0.05   0.05   0.04
  38   6    -0.02   0.04  -0.02     0.04  -0.01  -0.24     0.05  -0.04   0.12
  39   8    -0.01   0.03  -0.01     0.06   0.07  -0.16    -0.08   0.06   0.02
  40   7    -0.02   0.05  -0.03     0.09   0.05  -0.40     0.06  -0.09   0.18
  41   1    -0.00   0.01  -0.01     0.04   0.04  -0.11    -0.02  -0.01   0.04
  42   1    -0.01   0.02  -0.01     0.02  -0.00  -0.13     0.04  -0.05   0.07
  43   7    -0.03   0.04  -0.02    -0.01  -0.17  -0.24     0.20  -0.13   0.19
  44   1    -0.01   0.01  -0.01    -0.00  -0.06  -0.09     0.08  -0.05   0.07
  45   1    -0.01   0.01  -0.00    -0.01  -0.06  -0.04     0.05  -0.02   0.04
  46   6     0.01   0.01   0.02    -0.09  -0.10   0.10     0.00   0.04   0.06
  47   8     0.01  -0.00   0.03    -0.13  -0.14   0.14     0.06   0.01   0.05
  48   7     0.02   0.02   0.02    -0.09  -0.09   0.12    -0.02   0.07   0.12
  49   1     0.01   0.01   0.00    -0.04  -0.03   0.05    -0.00   0.02   0.04
  50   1     0.01   0.01   0.00    -0.03  -0.02   0.03    -0.02   0.03   0.04
  51   7     0.00   0.01   0.01    -0.07  -0.09   0.05    -0.03   0.05   0.02
  52   1     0.00   0.00   0.00    -0.01  -0.01   0.01    -0.02   0.02   0.01
  53   1    -0.00   0.00   0.00    -0.02  -0.02   0.01    -0.00   0.01  -0.01
                      4                      5                      6
                        a                      a                      a 
 Frequencies --    19.4688                28.3267                29.2199
 Red. masses --    12.0269                12.1267                12.1293
 Frc consts  --     0.0000                 0.0000                 0.0000
 IR Inten    --     5.2305                 4.2886                 1.8580
 Raman Activ --     0.0000                 0.0000                 0.0000
 Depolar     --     0.0000                 0.0000                 0.0000
 Atom AN      X      Y      Z        X      Y      Z        X      Y      Z
   1   8     0.20   0.07  -0.06     0.14   0.07  -0.15     0.05  -0.03   0.08
   2   6     0.12   0.07  -0.06     0.04   0.12  -0.02     0.04  -0.03   0.05
   3   1     0.04   0.03  -0.03     0.01   0.04   0.01     0.01  -0.01   0.02
   4   1     0.02   0.02  -0.02     0.02   0.06  -0.00     0.01  -0.01   0.02
   5   6     0.08   0.04  -0.03    -0.03   0.03   0.05     0.04  -0.03   0.02
   6   1     0.02   0.00   0.00    -0.00   0.00   0.01     0.02  -0.01   0.00
   7   1     0.01   0.01  -0.01    -0.03   0.03   0.03     0.02  -0.01   0.01
   8   7     0.13   0.02  -0.01    -0.06  -0.10   0.07     0.01  -0.03   0.01
   9   6     0.17  -0.01   0.02     0.03  -0.18  -0.01    -0.02  -0.01  -0.01
  10   1     0.04  -0.01   0.02     0.01  -0.06  -0.00     0.00   0.00  -0.01
  11   1     0.06  -0.01   0.01     0.00  -0.08   0.00    -0.01  -0.00  -0.01
  12   1     0.06   0.00   0.00     0.03  -0.04  -0.02    -0.01  -0.01   0.00
  13   6     0.08  -0.00   0.01    -0.15  -0.15   0.14     0.03  -0.01  -0.01
  14   1     0.02  -0.01   0.01    -0.04  -0.05   0.04     0.01   0.00  -0.01
  15   1     0.01   0.01  -0.01    -0.06  -0.03   0.05     0.01  -0.01   0.00
  16   1     0.03  -0.00   0.01    -0.05  -0.07   0.04     0.00  -0.00  -0.01
  17   6     0.15   0.07  -0.05    -0.07  -0.07   0.07    -0.01  -0.05   0.04
  18   1     0.03   0.03  -0.02    -0.03  -0.00   0.03     0.00  -0.02   0.02
  19   1     0.05   0.02  -0.02    -0.00  -0.01   0.01    -0.01  -0.02   0.01
  20   1     0.05   0.02  -0.01    -0.03  -0.04   0.02    -0.01  -0.01   0.01
  21   1     0.05   0.01  -0.01     0.04   0.02  -0.05     0.01  -0.01   0.03
  22   6     0.03  -0.01   0.03     0.10  -0.05  -0.12     0.06   0.13  -0.00
  23   8     0.11   0.02   0.05     0.19   0.07  -0.20     0.00  -0.04   0.13
  24   7     0.04  -0.02  -0.04     0.09  -0.09  -0.14     0.16   0.36  -0.18
  25   1     0.03  -0.00  -0.02     0.04  -0.00  -0.05     0.05   0.08  -0.04
  26   1    -0.00  -0.01  -0.01     0.01  -0.04  -0.02     0.05   0.12  -0.07
  27   7    -0.05  -0.05   0.10     0.03  -0.16  -0.04     0.04   0.13   0.01
  28   1    -0.02  -0.01   0.02    -0.01  -0.07   0.00     0.02   0.08  -0.03
  29   1    -0.01  -0.00   0.03     0.01  -0.04  -0.01    -0.01   0.00   0.03
  30   6    -0.09   0.00  -0.10    -0.03   0.07   0.06     0.00   0.01   0.01
  31   8     0.11  -0.00  -0.03    -0.09  -0.19   0.11    -0.04  -0.01  -0.01
  32   7    -0.12   0.04  -0.35     0.02   0.22   0.02     0.01   0.00   0.05
  33   1     0.01   0.02  -0.12    -0.00   0.01  -0.00    -0.01  -0.00   0.02
  34   1    -0.08   0.01  -0.11     0.02   0.10  -0.01     0.01   0.00   0.02
  35   7    -0.32  -0.04   0.02     0.01   0.27   0.08     0.05   0.02  -0.02
  36   1    -0.13  -0.01  -0.01     0.01   0.13   0.02     0.02   0.01  -0.00
  37   1    -0.09  -0.01   0.05    -0.01   0.05   0.04     0.01   0.00  -0.01
  38   6    -0.10   0.05  -0.06    -0.05   0.08   0.02    -0.16  -0.05   0.00
  39   8    -0.05   0.07   0.07     0.04  -0.09  -0.03    -0.08  -0.08   0.15
  40   7    -0.14   0.19  -0.22    -0.08   0.01   0.17     0.04  -0.18  -0.03
  41   1    -0.03   0.08  -0.06    -0.01  -0.05   0.05     0.07  -0.07   0.01
  42   1    -0.05   0.05  -0.08    -0.04   0.05   0.05    -0.01  -0.04  -0.05
  43   7    -0.16  -0.08  -0.05    -0.13   0.38  -0.06    -0.51   0.11  -0.14
  44   1    -0.06  -0.02  -0.04    -0.04   0.13   0.00    -0.14   0.02  -0.06
  45   1    -0.04  -0.05   0.02    -0.02   0.11  -0.04    -0.16   0.03  -0.02
  46   6    -0.04  -0.09   0.18     0.00  -0.06  -0.01     0.07  -0.06  -0.03
  47   8     0.00  -0.07   0.16    -0.05  -0.11   0.05     0.10   0.02  -0.10
  48   7    -0.11  -0.15   0.24    -0.06  -0.07   0.06     0.21  -0.06  -0.20
  49   1    -0.03  -0.04   0.06    -0.03  -0.03   0.03     0.08  -0.00  -0.09
  50   1    -0.03  -0.04   0.07     0.01  -0.01  -0.01     0.04  -0.03  -0.04
  51   7    -0.02  -0.11   0.21     0.13  -0.02  -0.14    -0.10  -0.14   0.19
  52   1    -0.01  -0.03   0.06     0.04   0.01  -0.04    -0.02  -0.06   0.05
  53   1     0.00  -0.02   0.05     0.04   0.00  -0.05    -0.04  -0.04   0.07
                      7                      8                      9
                        a                      a                      a 
 Frequencies --    32.1022                39.3338                45.0123
 Red. masses --    12.1195                12.3321                12.3891
 Frc consts  --     0.0000                 0.0000                 0.0000
 IR Inten    --     0.3665                 0.4717                 6.6693
 Raman Activ --     0.0000                 0.0000                 0.0000
 Depolar     --     0.0000                 0.0000                 0.0000
 Atom AN      X      Y      Z        X      Y      Z        X      Y      Z
   1   8     0.09   0.05   0.03    -0.14  -0.11   0.19     0.05  -0.05   0.10
   2   6     0.07   0.06   0.06    -0.05  -0.13   0.12     0.14  -0.06   0.14
   3   1     0.01   0.02   0.03    -0.02  -0.04   0.04     0.03  -0.03   0.07
   4   1     0.03   0.02   0.02    -0.00  -0.06   0.04     0.08  -0.02   0.05
   5   6     0.04   0.04   0.04    -0.01  -0.08   0.02     0.17  -0.02   0.03
   6   1     0.02   0.01  -0.01    -0.01  -0.03   0.01     0.06   0.00  -0.02
   7   1     0.01   0.02   0.03     0.00  -0.04  -0.02     0.07  -0.01   0.02
   8   7    -0.05  -0.02   0.01     0.00   0.09   0.00     0.04   0.01  -0.03
   9   6    -0.06  -0.03  -0.08     0.03   0.12   0.14    -0.07   0.06  -0.13
  10   1    -0.01  -0.00  -0.04     0.00   0.01   0.05    -0.00   0.04  -0.06
  11   1    -0.04  -0.02  -0.03     0.01   0.06   0.04    -0.05   0.02  -0.05
  12   1    -0.02  -0.01  -0.02     0.01   0.03   0.06    -0.04   0.01  -0.03
  13   6    -0.05  -0.02   0.01    -0.01   0.08  -0.14     0.10   0.05  -0.10
  14   1    -0.00   0.00  -0.01    -0.01  -0.00  -0.03     0.05   0.03  -0.05
  15   1    -0.01  -0.00   0.02    -0.01   0.02  -0.07     0.05   0.00  -0.01
  16   1    -0.03  -0.02  -0.00     0.00   0.06  -0.04     0.00   0.02  -0.04
  17   6    -0.10  -0.05   0.08     0.02   0.22  -0.02    -0.07  -0.06   0.09
  18   1    -0.02  -0.01   0.04     0.00   0.05  -0.04     0.00  -0.03   0.05
  19   1    -0.03  -0.01   0.02     0.01   0.07   0.03    -0.04  -0.03   0.04
  20   1    -0.05  -0.02   0.02     0.01   0.10  -0.01    -0.05  -0.01   0.01
  21   1     0.03   0.01   0.00    -0.02  -0.04   0.03     0.03  -0.00  -0.00
  22   6     0.05   0.02  -0.02     0.10  -0.03  -0.11     0.04  -0.01  -0.06
  23   8     0.10  -0.02   0.04     0.09  -0.11  -0.08     0.18   0.14  -0.14
  24   7     0.09   0.07  -0.14     0.14   0.04  -0.18    -0.04  -0.23  -0.02
  25   1     0.04   0.02  -0.04     0.03  -0.01  -0.04     0.00  -0.06  -0.01
  26   1     0.01   0.02  -0.04     0.04   0.02  -0.05    -0.04  -0.08   0.01
  27   7    -0.03  -0.00   0.04     0.11  -0.01  -0.13    -0.02   0.01  -0.04
  28   1    -0.01   0.01  -0.00     0.03   0.01  -0.04    -0.03  -0.03   0.00
  29   1    -0.01  -0.00   0.03     0.02  -0.02  -0.02     0.01   0.03  -0.01
  30   6    -0.04   0.02   0.03    -0.02   0.04   0.00    -0.07   0.01  -0.06
  31   8    -0.19  -0.07  -0.00     0.02   0.37  -0.05    -0.28   0.05  -0.15
  32   7    -0.00   0.06   0.16    -0.07  -0.13   0.10    -0.04   0.01   0.18
  33   1    -0.03   0.00   0.06    -0.01   0.02   0.04    -0.05   0.01   0.07
  34   1     0.03   0.03   0.05    -0.02  -0.09   0.04     0.03  -0.00   0.07
  35   7     0.10   0.10  -0.04    -0.03  -0.18  -0.03     0.13  -0.02  -0.19
  36   1     0.06   0.04  -0.00    -0.01  -0.11  -0.00     0.07  -0.02  -0.03
  37   1     0.02   0.01  -0.03     0.01  -0.01  -0.03     0.03  -0.01  -0.10
  38   6    -0.09  -0.01   0.03    -0.05   0.07   0.02    -0.01   0.02   0.00
  39   8    -0.07  -0.03   0.05     0.04  -0.12  -0.04    -0.05   0.13   0.06
  40   7    -0.42   0.34  -0.15    -0.23   0.14   0.11     0.17  -0.09  -0.02
  41   1    -0.15   0.14  -0.05    -0.07   0.01   0.03     0.06  -0.01  -0.00
  42   1    -0.10   0.08  -0.02    -0.08   0.08   0.04     0.05  -0.04  -0.02
  43   7     0.21  -0.33   0.19     0.00   0.24   0.02    -0.14   0.01  -0.04
  44   1     0.02  -0.07   0.03    -0.02   0.10   0.02    -0.02  -0.03  -0.02
  45   1     0.09  -0.13   0.07     0.03   0.05  -0.01    -0.06   0.01   0.00
  46   6     0.08  -0.04  -0.08     0.02  -0.12   0.01    -0.04   0.03   0.07
  47   8     0.13   0.06  -0.17    -0.04  -0.18   0.07     0.14   0.15  -0.11
  48   7     0.07  -0.12  -0.14    -0.04  -0.13   0.08    -0.34  -0.12   0.28
  49   1     0.03  -0.02  -0.07    -0.03  -0.05   0.04    -0.06  -0.02   0.04
  50   1     0.02  -0.05  -0.03     0.00  -0.03   0.01    -0.08  -0.04   0.07
  51   7     0.07  -0.08   0.05     0.14  -0.08  -0.12     0.00   0.02   0.12
  52   1     0.00  -0.05   0.03     0.04  -0.01  -0.04    -0.03  -0.01   0.05
  53   1     0.02  -0.01   0.02     0.04  -0.02  -0.03     0.03   0.03   0.00
                     10                     11                     12
                        a                      a                      a 
 Frequencies --    47.0447                55.9383                61.6239
 Red. masses --    12.4647                12.3542                12.3810
 Frc consts  --     0.0000                 0.0000                 0.0000
 IR Inten    --     1.8697                 9.6245                 1.5037
 Raman Activ --     0.0000                 0.0000                 0.0000
 Depolar     --     0.0000                 0.0000                 0.0000
 Atom AN      X      Y      Z        X      Y      Z        X      Y      Z
   1   8    -0.06   0.07  -0.11    -0.07   0.09   0.03    -0.19   0.00   0.01
   2   6     0.04   0.08   0.07    -0.14   0.06  -0.09    -0.09  -0.03  -0.02
   3   1     0.00  -0.01   0.05    -0.03   0.03  -0.06    -0.02  -0.02  -0.01
   4   1     0.03   0.05   0.03    -0.07   0.00  -0.03    -0.04  -0.02  -0.01
   5   6     0.08   0.12   0.10    -0.14   0.06  -0.05    -0.01   0.04   0.00
   6   1     0.02   0.05   0.02    -0.05   0.02  -0.00    -0.01   0.04  -0.00
   7   1     0.03   0.03   0.04    -0.04   0.02  -0.02     0.02   0.01   0.01
   8   7     0.07   0.12   0.10    -0.09   0.05  -0.02    -0.00   0.03   0.01
   9   6     0.13   0.05   0.10    -0.14   0.09  -0.04    -0.16   0.13  -0.08
  10   1     0.04  -0.00   0.03    -0.05   0.06   0.00    -0.04   0.08  -0.03
  11   1     0.03   0.01   0.03    -0.02   0.02  -0.00    -0.04   0.03  -0.02
  12   1     0.06   0.02   0.03    -0.06   0.02  -0.03    -0.08   0.02  -0.04
  13   6    -0.01   0.06   0.07     0.01   0.09   0.05     0.17   0.13   0.08
  14   1    -0.00   0.00   0.02    -0.01   0.05   0.02     0.05   0.08   0.02
  15   1    -0.02   0.03   0.02     0.02   0.02   0.02     0.08   0.02   0.04
  16   1    -0.01   0.02   0.02     0.01   0.02   0.02     0.05   0.04   0.02
  17   6     0.05   0.20   0.10    -0.04  -0.08  -0.06    -0.01  -0.20   0.03
  18   1     0.00   0.07   0.02    -0.00  -0.03  -0.01     0.03  -0.08   0.03
  19   1     0.03   0.07   0.04    -0.03  -0.03  -0.04    -0.04  -0.08  -0.01
  20   1     0.01   0.06   0.03     0.00  -0.03  -0.01     0.01  -0.06   0.01
  21   1    -0.00   0.03  -0.05     0.01  -0.02   0.00    -0.04   0.00  -0.01
  22   6    -0.08  -0.08  -0.17     0.05  -0.16  -0.09     0.06  -0.06  -0.04
  23   8     0.03   0.05  -0.25     0.10  -0.29   0.01    -0.00  -0.01  -0.14
  24   7    -0.14  -0.21  -0.18     0.01  -0.29  -0.15     0.17   0.20  -0.09
  25   1    -0.02  -0.05  -0.06     0.01  -0.11  -0.04     0.04   0.09  -0.03
  26   1    -0.06  -0.08  -0.04    -0.00  -0.06  -0.07     0.05   0.02   0.02
  27   7    -0.18  -0.14  -0.11     0.04   0.05  -0.17     0.02  -0.40   0.11
  28   1    -0.07  -0.06  -0.02    -0.00   0.03  -0.07     0.03  -0.08   0.02
  29   1    -0.04  -0.01  -0.03     0.01   0.03  -0.03     0.01  -0.11   0.02
  30   6    -0.03   0.05   0.14     0.03  -0.00   0.04     0.06   0.01   0.09
  31   8     0.03   0.17   0.16     0.11  -0.00   0.08     0.23   0.06   0.16
  32   7    -0.07  -0.01   0.12     0.01  -0.01  -0.03     0.02  -0.04  -0.05
  33   1    -0.01   0.01   0.03     0.02  -0.00  -0.02     0.03  -0.00  -0.03
  34   1    -0.03  -0.02   0.03    -0.01  -0.00  -0.02    -0.02  -0.01  -0.02
  35   7    -0.09  -0.00   0.17    -0.04   0.01   0.09    -0.08   0.00   0.19
  36   1    -0.04  -0.02   0.04    -0.03   0.00   0.02    -0.05  -0.00   0.04
  37   1    -0.02   0.01   0.05    -0.01   0.01   0.04    -0.01   0.02   0.08
  38   6    -0.06  -0.12  -0.05     0.04   0.14   0.08     0.01  -0.08  -0.02
  39   8    -0.16  -0.01  -0.06    -0.02   0.29   0.12     0.12  -0.17   0.07
  40   7     0.04  -0.21  -0.05     0.18   0.08   0.05    -0.04   0.00  -0.09
  41   1     0.00  -0.04  -0.02     0.05   0.04   0.01     0.01  -0.00  -0.02
  42   1     0.02  -0.08  -0.01     0.06  -0.01   0.01    -0.03   0.02  -0.04
  43   7    -0.07  -0.20  -0.04    -0.00   0.07   0.08    -0.07  -0.06  -0.04
  44   1     0.00  -0.08  -0.01     0.02  -0.01   0.01    -0.03  -0.01  -0.03
  45   1    -0.03  -0.04  -0.01    -0.02   0.02   0.03    -0.01  -0.04   0.01
  46   6     0.12  -0.00  -0.03     0.03  -0.04   0.03    -0.03   0.10  -0.06
  47   8     0.22  -0.07  -0.06    -0.10   0.17  -0.00     0.08   0.20  -0.17
  48   7     0.24   0.11  -0.06     0.06  -0.24  -0.19    -0.25   0.00   0.10
  49   1     0.09   0.04  -0.01     0.00  -0.05  -0.11    -0.05   0.01   0.01
  50   1     0.03   0.04   0.00     0.06  -0.11  -0.06    -0.06  -0.00   0.02
  51   7    -0.07  -0.04   0.01     0.12  -0.10   0.27     0.04   0.12  -0.06
  52   1    -0.03  -0.00   0.00     0.05  -0.07   0.08    -0.02   0.02  -0.00
  53   1    -0.02  -0.02  -0.01     0.03  -0.01   0.10     0.02   0.04  -0.03
                     13                     14                     15
                        a                      a                      a 
 Frequencies --    68.6833                77.9401                81.2896
 Red. masses --    13.3974                13.3310                13.5541
 Frc consts  --     0.0000                 0.0000                 0.0000
 IR Inten    --     1.2967                 9.5074                 3.0208
 Raman Activ --     0.0000                 0.0000                 0.0000
 Depolar     --     0.0000                 0.0000                 0.0000
 Atom AN      X      Y      Z        X      Y      Z        X      Y      Z
   1   8    -0.06  -0.04  -0.06    -0.25   0.07  -0.06     0.01  -0.00  -0.12
   2   6    -0.04  -0.03  -0.03    -0.13   0.03  -0.06     0.00   0.01  -0.07
   3   1    -0.01  -0.01  -0.01    -0.02  -0.02  -0.03    -0.00   0.00  -0.02
   4   1    -0.01  -0.00  -0.01    -0.06   0.01  -0.02     0.00   0.01  -0.02
   5   6    -0.02  -0.02  -0.01    -0.01   0.14   0.02    -0.02  -0.01  -0.03
   6   1    -0.01  -0.00   0.00    -0.02   0.07   0.01    -0.00  -0.00  -0.01
   7   1    -0.01  -0.01  -0.01     0.02   0.03   0.01    -0.01   0.00  -0.00
   8   7    -0.00  -0.00  -0.00     0.05   0.14   0.05    -0.02  -0.08  -0.03
   9   6     0.02  -0.01   0.03     0.03   0.15   0.06    -0.10  -0.03  -0.11
  10   1     0.00  -0.01   0.01     0.01   0.05   0.02    -0.03   0.02  -0.03
  11   1     0.01   0.00   0.01     0.01   0.05   0.02    -0.03  -0.02  -0.03
  12   1     0.01  -0.00   0.01     0.01   0.04   0.02    -0.05  -0.02  -0.05
  13   6    -0.01  -0.01  -0.01     0.08   0.15   0.08     0.07  -0.02   0.05
  14   1    -0.00  -0.01   0.00     0.02   0.05   0.03     0.02   0.02   0.02
  15   1    -0.00  -0.00  -0.01     0.03   0.04   0.03     0.04  -0.02   0.02
  16   1    -0.00  -0.00  -0.00     0.02   0.04   0.02     0.03  -0.01   0.02
  17   6     0.01   0.02  -0.02     0.08   0.10   0.01    -0.03  -0.22  -0.00
  18   1     0.00   0.01  -0.01     0.02   0.03   0.01     0.02  -0.08   0.01
  19   1     0.01   0.01  -0.00     0.03   0.03  -0.02    -0.04  -0.08  -0.01
  20   1     0.00   0.01  -0.01     0.03   0.01   0.01    -0.01  -0.06  -0.00
  21   1    -0.01  -0.01  -0.02    -0.06   0.02  -0.02     0.00   0.01  -0.04
  22   6    -0.04  -0.09  -0.03     0.02  -0.09  -0.05     0.11   0.04  -0.08
  23   8    -0.05  -0.10  -0.05    -0.15  -0.24  -0.03     0.12   0.24  -0.26
  24   7     0.11   0.24  -0.26     0.02  -0.07   0.10     0.02  -0.15   0.16
  25   1     0.04   0.08  -0.08    -0.03  -0.03   0.05    -0.00  -0.00   0.04
  26   1     0.01   0.02  -0.03     0.05   0.01   0.01     0.01  -0.05   0.06
  27   7    -0.21  -0.48   0.20     0.22   0.05  -0.23     0.21   0.04  -0.13
  28   1    -0.03  -0.07   0.02     0.08   0.02  -0.05     0.04  -0.06   0.01
  29   1    -0.04  -0.10   0.04     0.05  -0.02  -0.06     0.05  -0.00  -0.04
  30   6    -0.07   0.00  -0.10    -0.06  -0.10  -0.08    -0.01   0.08  -0.02
  31   8    -0.23   0.01  -0.17    -0.23  -0.40  -0.10    -0.00   0.30  -0.06
  32   7    -0.04   0.03   0.06     0.02   0.08  -0.02    -0.05  -0.03   0.06
  33   1    -0.04   0.01   0.04    -0.02  -0.03  -0.00    -0.01   0.03   0.03
  34   1     0.02   0.00   0.03     0.03   0.06  -0.01    -0.01  -0.04   0.03
  35   7     0.07  -0.02  -0.20     0.08   0.06  -0.14    -0.01  -0.06  -0.05
  36   1     0.05  -0.01  -0.04     0.05   0.06  -0.03     0.00  -0.05  -0.01
  37   1     0.01  -0.01  -0.09    -0.00  -0.03  -0.05     0.01   0.01  -0.03
  38   6     0.10   0.09   0.02    -0.02  -0.07   0.02    -0.01  -0.06   0.05
  39   8     0.06   0.20   0.03     0.10  -0.20   0.11     0.12  -0.19   0.17
  40   7     0.18   0.06   0.00    -0.10   0.03  -0.04    -0.11   0.07  -0.04
  41   1     0.05   0.03  -0.00    -0.01   0.00  -0.01    -0.01   0.02  -0.01
  42   1     0.06  -0.01   0.00    -0.05   0.04  -0.03    -0.05   0.04  -0.03
  43   7     0.11   0.02   0.04    -0.11  -0.01  -0.02    -0.06  -0.07   0.04
  44   1     0.04  -0.01   0.01    -0.04   0.00  -0.01    -0.06   0.01  -0.01
  45   1     0.02   0.02   0.01    -0.01  -0.04   0.01    -0.01  -0.03   0.02
  46   6     0.01   0.02   0.14     0.08   0.02   0.09    -0.07   0.03   0.12
  47   8    -0.10  -0.04   0.26     0.16  -0.04   0.09    -0.23  -0.05   0.27
  48   7     0.20   0.12   0.01     0.08   0.09   0.17     0.25   0.18  -0.12
  49   1     0.03   0.02   0.03     0.03   0.02   0.07     0.03   0.03   0.01
  50   1     0.04   0.03   0.01    -0.01   0.04   0.06     0.03   0.04  -0.00
  51   7    -0.04   0.02   0.14     0.02   0.03   0.03    -0.18   0.00   0.17
  52   1     0.01   0.02   0.02    -0.01   0.02   0.01    -0.02   0.02   0.03
  53   1    -0.02  -0.01   0.05    -0.00  -0.01  -0.00    -0.05  -0.00   0.04
                     16                     17                     18
                        a                      a                      a 
 Frequencies --    83.3734                92.3486               101.4136
 Red. masses --    13.2311                11.7844                12.5565
 Frc consts  --     0.0000                 0.0000                 0.0000
 IR Inten    --     1.1579                 4.5507                10.1885
 Raman Activ --     0.0000                 0.0000                 0.0000
 Depolar     --     0.0000                 0.0000                 0.0000
 Atom AN      X      Y      Z        X      Y      Z        X      Y      Z
   1   8     0.12   0.09  -0.26    -0.01  -0.14  -0.16     0.10   0.08   0.15
   2   6     0.02   0.11  -0.22    -0.04  -0.09  -0.07    -0.06   0.09   0.04
   3   1     0.02   0.03  -0.09    -0.02  -0.03  -0.01    -0.02   0.06  -0.01
   4   1    -0.02   0.04  -0.07    -0.00  -0.01  -0.02    -0.04   0.02   0.01
   5   6     0.02   0.08  -0.07    -0.06  -0.12  -0.04    -0.16  -0.01   0.07
   6   1    -0.00   0.04  -0.02    -0.02  -0.04  -0.00    -0.05  -0.02   0.03
   7   1     0.00   0.03   0.01    -0.03  -0.03  -0.02    -0.07   0.01   0.01
   8   7     0.06  -0.07  -0.03    -0.03  -0.10  -0.04    -0.13  -0.05   0.09
   9   6     0.02  -0.07  -0.13     0.19  -0.22   0.10    -0.09  -0.07   0.09
  10   1     0.01  -0.00  -0.05     0.04  -0.12   0.05    -0.03  -0.02   0.04
  11   1    -0.01  -0.04  -0.04     0.06  -0.06   0.03    -0.02  -0.03   0.03
  12   1    -0.00  -0.02  -0.05     0.10  -0.04   0.04    -0.02  -0.02   0.02
  13   6     0.10  -0.04   0.11    -0.25  -0.22  -0.09    -0.14  -0.05   0.13
  14   1     0.02   0.02   0.04    -0.07  -0.11  -0.02    -0.04  -0.01   0.04
  15   1     0.04  -0.01   0.05    -0.11  -0.04  -0.05    -0.04  -0.01   0.04
  16   1     0.04  -0.03   0.04    -0.07  -0.07  -0.03    -0.03  -0.02   0.04
  17   6     0.06  -0.22  -0.03     0.01   0.21  -0.10    -0.08  -0.05   0.04
  18   1     0.03  -0.07   0.01    -0.04   0.09  -0.07    -0.03  -0.01   0.00
  19   1     0.00  -0.07  -0.04     0.06   0.09  -0.00    -0.02  -0.01   0.00
  20   1     0.02  -0.08  -0.00     0.01   0.07  -0.03    -0.01  -0.01   0.02
  21   1     0.01   0.02  -0.03    -0.01  -0.02  -0.03     0.04  -0.02   0.04
  22   6    -0.08  -0.07   0.07     0.06  -0.06  -0.02     0.04  -0.04   0.01
  23   8    -0.21  -0.32   0.23    -0.06  -0.10  -0.07     0.15  -0.10   0.11
  24   7    -0.03   0.05   0.02     0.07  -0.01   0.09     0.03  -0.11  -0.13
  25   1    -0.02  -0.01   0.01    -0.00   0.01   0.03     0.03  -0.05  -0.05
  26   1     0.02   0.06  -0.03     0.05   0.01   0.03    -0.01  -0.02  -0.06
  27   7     0.00   0.08  -0.04     0.17  -0.07  -0.09    -0.05   0.06   0.03
  28   1     0.02   0.07  -0.03     0.06  -0.02  -0.02    -0.03   0.02  -0.01
  29   1    -0.01   0.00   0.00     0.04  -0.03  -0.03    -0.02   0.02   0.03
  30   6    -0.10   0.13   0.08    -0.03   0.04   0.05     0.07   0.02  -0.15
  31   8    -0.15   0.39   0.02    -0.02   0.11   0.05     0.11   0.14  -0.19
  32   7    -0.14  -0.00   0.24    -0.05  -0.01   0.08     0.05  -0.05  -0.16
  33   1    -0.04   0.05   0.08    -0.01   0.02   0.02     0.02  -0.00  -0.04
  34   1    -0.02  -0.03   0.08    -0.01  -0.00   0.02     0.00  -0.04  -0.04
  35   7    -0.05  -0.03   0.02    -0.03  -0.00   0.05     0.06  -0.07  -0.17
  36   1    -0.00  -0.06   0.02    -0.01  -0.02   0.01     0.02  -0.03  -0.04
  37   1    -0.00   0.02  -0.03    -0.01   0.01   0.01     0.03   0.01  -0.06
  38   6     0.01   0.00  -0.03     0.03   0.03   0.10    -0.09  -0.10  -0.00
  39   8    -0.00  -0.01  -0.07     0.12   0.05   0.28    -0.11  -0.04   0.10
  40   7     0.01  -0.03   0.02     0.07   0.13  -0.06    -0.01  -0.11  -0.08
  41   1    -0.00  -0.01   0.00     0.05   0.05  -0.01     0.01  -0.01  -0.02
  42   1     0.00  -0.00   0.01     0.01   0.03  -0.05    -0.01  -0.04  -0.04
  43   7     0.01   0.06  -0.04    -0.11  -0.05   0.08    -0.18  -0.18  -0.01
  44   1     0.02   0.01   0.00    -0.05  -0.02  -0.01    -0.03  -0.08  -0.01
  45   1     0.01   0.01  -0.01    -0.04  -0.04   0.05    -0.05  -0.07   0.02
  46   6     0.07  -0.04   0.02     0.01   0.16  -0.04     0.11   0.15   0.01
  47   8     0.17  -0.09  -0.01     0.14   0.29  -0.19     0.01   0.09   0.13
  48   7    -0.04  -0.03   0.18    -0.12   0.08   0.02     0.04   0.17   0.11
  49   1     0.00  -0.01   0.06     0.01   0.04  -0.04    -0.02   0.03   0.07
  50   1    -0.01   0.01   0.04    -0.03   0.01   0.01     0.04   0.07  -0.01
  51   7     0.11  -0.00  -0.09    -0.04   0.13   0.10     0.34   0.26  -0.21
  52   1     0.01   0.00  -0.02    -0.04   0.00   0.05     0.04   0.05  -0.03
  53   1     0.02  -0.02  -0.02    -0.01   0.04   0.02     0.08   0.05  -0.05
                     19                     20                     21
                        a                      a                      a 
 Frequencies --   106.2737               115.9819               125.0743
 Red. masses --    12.4821                11.4842                11.6865
 Frc consts  --     0.0000                 0.0000                 0.0000
 IR Inten    --    11.9183                17.2095                 3.2944
 Raman Activ --     0.0000                 0.0000                 0.0000
 Depolar     --     0.0000                 0.0000                 0.0000
 Atom AN      X      Y      Z        X      Y      Z        X      Y      Z
   1   8    -0.13   0.07  -0.10     0.01   0.00  -0.01     0.05  -0.02  -0.16
   2   6    -0.04   0.11   0.10     0.07   0.01   0.06     0.24   0.03   0.21
   3   1    -0.02  -0.00   0.06    -0.01   0.00   0.06     0.03  -0.04   0.15
   4   1     0.01   0.07   0.03     0.07   0.00   0.03     0.16   0.06   0.08
   5   6    -0.02   0.11   0.17     0.03   0.00  -0.11     0.29   0.10   0.12
   6   1     0.00   0.06   0.03     0.04  -0.01  -0.06     0.11   0.06  -0.02
   7   1     0.01   0.04   0.09     0.02   0.00  -0.02     0.12   0.03   0.08
   8   7    -0.08  -0.03   0.18    -0.19   0.03  -0.20     0.06   0.05   0.04
   9   6    -0.04  -0.10   0.05    -0.21   0.02  -0.28     0.05  -0.02  -0.15
  10   1     0.00  -0.03  -0.00    -0.04   0.01  -0.11     0.04   0.00  -0.07
  11   1    -0.03  -0.05   0.01    -0.09   0.00  -0.09    -0.02  -0.03  -0.05
  12   1     0.00  -0.02   0.01    -0.06   0.01  -0.06     0.03   0.00  -0.05
  13   6    -0.14  -0.06   0.22    -0.18   0.02  -0.29    -0.03   0.00  -0.06
  14   1    -0.03  -0.02   0.05    -0.04  -0.01  -0.10     0.01  -0.02  -0.04
  15   1    -0.05  -0.01   0.08    -0.05   0.00  -0.08    -0.02   0.01  -0.00
  16   1    -0.05  -0.04   0.06    -0.07   0.02  -0.09    -0.04  -0.00  -0.03
  17   6    -0.10  -0.05   0.20    -0.30   0.05  -0.04    -0.12   0.10   0.22
  18   1    -0.03  -0.01   0.07    -0.08   0.02   0.01    -0.03   0.04   0.10
  19   1    -0.03  -0.01   0.05    -0.09   0.02   0.01    -0.02   0.04   0.09
  20   1    -0.04  -0.02   0.06    -0.12   0.01  -0.03    -0.08   0.02   0.04
  21   1    -0.03   0.05  -0.04     0.00   0.01  -0.01     0.01   0.03  -0.06
  22   6    -0.03   0.01  -0.01     0.00  -0.02   0.01    -0.07  -0.11  -0.01
  23   8    -0.13   0.02  -0.07    -0.04  -0.05   0.01    -0.19  -0.32   0.10
  24   7    -0.03   0.06   0.10     0.02   0.02   0.02    -0.02   0.01  -0.07
  25   1    -0.03   0.04   0.03    -0.00   0.00   0.01    -0.02  -0.03   0.00
  26   1     0.02   0.02   0.04     0.01   0.01   0.01     0.01   0.03  -0.04
  27   7     0.05  -0.05  -0.04     0.03  -0.02  -0.01     0.02  -0.01  -0.11
  28   1     0.03  -0.01  -0.00     0.02   0.00  -0.01     0.03   0.04  -0.05
  29   1     0.01  -0.02  -0.03     0.01  -0.01  -0.01    -0.01  -0.02  -0.02
  30   6     0.11   0.02  -0.19     0.06  -0.02   0.06     0.05  -0.00  -0.01
  31   8     0.20   0.19  -0.22     0.16  -0.06   0.11     0.10   0.01  -0.00
  32   7     0.08  -0.07  -0.23     0.05  -0.02  -0.06     0.04  -0.01  -0.06
  33   1     0.03  -0.01  -0.06     0.03  -0.01  -0.03     0.02  -0.01  -0.02
  34   1    -0.01  -0.07  -0.06    -0.00   0.01  -0.03    -0.01  -0.02  -0.02
  35   7     0.07  -0.09  -0.20    -0.03   0.02   0.13     0.01  -0.01   0.01
  36   1     0.02  -0.03  -0.05    -0.03   0.01   0.02    -0.00   0.00  -0.00
  37   1     0.04   0.02  -0.06    -0.01   0.00   0.06     0.01   0.01   0.01
  38   6     0.05   0.07   0.00     0.00   0.04   0.04     0.02  -0.04   0.00
  39   8     0.04   0.05  -0.06    -0.01   0.09   0.07     0.08  -0.10   0.04
  40   7     0.01   0.07   0.05     0.05   0.04   0.00    -0.01  -0.00  -0.02
  41   1    -0.00   0.01   0.01     0.02   0.02  -0.00     0.00  -0.00  -0.00
  42   1     0.01   0.02   0.03     0.01   0.00  -0.01    -0.02   0.01  -0.01
  43   7     0.10   0.11   0.01    -0.03   0.00   0.04    -0.02  -0.00  -0.02
  44   1     0.02   0.04   0.01     0.00  -0.01   0.00    -0.00  -0.00  -0.00
  45   1     0.02   0.04  -0.01    -0.01  -0.01   0.02     0.01  -0.02   0.00
  46   6     0.03  -0.10  -0.02     0.13  -0.06   0.10    -0.15   0.08   0.01
  47   8     0.25  -0.05  -0.19     0.28  -0.23   0.13    -0.38   0.13   0.13
  48   7    -0.04  -0.12   0.06     0.17   0.13   0.27    -0.07   0.03  -0.16
  49   1     0.07   0.00  -0.04     0.09   0.03   0.11    -0.10  -0.02  -0.01
  50   1    -0.01  -0.03   0.01     0.02   0.08   0.07    -0.02  -0.03  -0.02
  51   7    -0.20  -0.18   0.14    -0.01  -0.03  -0.01     0.03   0.11  -0.02
  52   1    -0.04  -0.04   0.03    -0.03   0.01  -0.00     0.03   0.02  -0.01
  53   1    -0.04  -0.04   0.02    -0.01  -0.04  -0.02    -0.01   0.03   0.02
                     22                     23                     24
                        a                      a                      a 
 Frequencies --   148.1169               160.7282               174.3431
 Red. masses --    13.3528                13.1944                12.5050
 Frc consts  --     0.0000                 0.0000                 0.0000
 IR Inten    --    26.7544                22.8665                26.9786
 Raman Activ --     0.0000                 0.0000                 0.0000
 Depolar     --     0.0000                 0.0000                 0.0000
 Atom AN      X      Y      Z        X      Y      Z        X      Y      Z
   1   8    -0.08  -0.01  -0.08     0.10   0.00   0.05     0.26   0.08   0.17
   2   6     0.01  -0.01   0.00     0.02   0.01   0.00     0.07   0.08   0.04
   3   1     0.00  -0.02   0.01     0.00   0.02  -0.00     0.02   0.07  -0.00
   4   1     0.01   0.01   0.00     0.00  -0.00   0.00     0.01   0.01   0.01
   5   6     0.06   0.04   0.03    -0.03  -0.03  -0.02    -0.07  -0.04   0.01
   6   1     0.02   0.03   0.01    -0.01  -0.02  -0.00    -0.02  -0.06   0.02
   7   1     0.03   0.01   0.02    -0.02  -0.01  -0.01    -0.06  -0.00  -0.03
   8   7     0.06   0.01   0.04    -0.04  -0.01  -0.03    -0.01   0.01   0.04
   9   6     0.03   0.02  -0.00    -0.02  -0.02   0.01    -0.04   0.06   0.09
  10   1     0.02   0.01  -0.01    -0.01  -0.00   0.01    -0.02   0.03   0.04
  11   1    -0.00   0.01  -0.01     0.00  -0.00   0.01     0.01   0.02   0.03
  12   1     0.01   0.00   0.01    -0.00  -0.00  -0.00    -0.03   0.01   0.02
  13   6     0.06   0.01   0.04    -0.04  -0.01  -0.03     0.06   0.05   0.03
  14   1     0.02   0.00   0.01    -0.01  -0.00  -0.01     0.02   0.03   0.00
  15   1     0.02   0.00   0.01    -0.01  -0.00  -0.01     0.03   0.01   0.01
  16   1     0.02   0.00   0.01    -0.01  -0.00  -0.01     0.02   0.02   0.01
  17   6     0.04  -0.02   0.05    -0.03   0.02  -0.03     0.03  -0.03  -0.00
  18   1     0.02  -0.01   0.02    -0.01   0.00  -0.02     0.02  -0.02  -0.01
  19   1     0.01  -0.01   0.01    -0.01   0.01  -0.00    -0.01  -0.02   0.00
  20   1     0.01  -0.01   0.01    -0.01   0.01  -0.01     0.02   0.00   0.00
  21   1    -0.03   0.02  -0.02     0.03  -0.02   0.02     0.08  -0.02   0.05
  22   6     0.15  -0.02   0.03     0.15  -0.09   0.03     0.06  -0.11   0.00
  23   8    -0.01  -0.01  -0.08     0.08  -0.16   0.03     0.10  -0.23   0.11
  24   7     0.17   0.08   0.23     0.19  -0.02   0.06     0.09  -0.14  -0.18
  25   1     0.01   0.05   0.08     0.04  -0.01   0.03     0.04  -0.09  -0.05
  26   1     0.09   0.02   0.09     0.07   0.00   0.02    -0.01  -0.03  -0.07
  27   7     0.27  -0.14  -0.02     0.22  -0.11  -0.01     0.03  -0.01  -0.02
  28   1     0.10  -0.02  -0.00     0.08  -0.01  -0.01     0.01   0.03  -0.03
  29   1     0.09  -0.02  -0.03     0.07  -0.02  -0.02     0.01   0.00   0.01
  30   6    -0.00   0.00  -0.00     0.00   0.00   0.00    -0.00  -0.01  -0.00
  31   8    -0.01   0.00  -0.01     0.00   0.00   0.01    -0.00  -0.02  -0.00
  32   7     0.00   0.01   0.00    -0.00  -0.00   0.00     0.00   0.01  -0.01
  33   1    -0.00  -0.00   0.00     0.00   0.00   0.00    -0.00  -0.01  -0.00
  34   1    -0.00  -0.01   0.00    -0.00  -0.00   0.00    -0.01  -0.01  -0.00
  35   7     0.00  -0.00  -0.01    -0.00  -0.00   0.01    -0.00  -0.00  -0.00
  36   1     0.00   0.00  -0.00    -0.00   0.00   0.00     0.00   0.01  -0.00
  37   1     0.00   0.00  -0.00     0.00   0.00   0.00     0.00   0.01  -0.00
  38   6    -0.16   0.12   0.06    -0.11  -0.03  -0.17     0.06   0.04   0.06
  39   8    -0.39   0.44   0.06    -0.31   0.01  -0.45     0.11   0.01   0.11
  40   7     0.06  -0.01   0.01    -0.20  -0.21   0.12     0.05   0.11  -0.01
  41   1    -0.01   0.06  -0.01    -0.15  -0.06   0.01     0.04   0.02   0.01
  42   1     0.04  -0.06   0.00    -0.04  -0.02   0.10     0.02   0.01  -0.01
  43   7    -0.15  -0.14   0.12     0.10   0.06  -0.11     0.01   0.03   0.04
  44   1     0.03  -0.12   0.04     0.12  -0.04   0.04    -0.02   0.02  -0.00
  45   1    -0.06  -0.03   0.04     0.07   0.01  -0.06    -0.01   0.02   0.02
  46   6    -0.05  -0.08  -0.11    -0.03   0.14   0.12    -0.19   0.01  -0.12
  47   8    -0.12  -0.23  -0.01     0.04   0.25   0.03     0.01  -0.19  -0.19
  48   7    -0.02  -0.00  -0.09     0.04   0.14   0.03    -0.08   0.29  -0.02
  49   1    -0.05  -0.03   0.03    -0.01   0.03   0.02     0.02   0.07   0.05
  50   1    -0.02   0.01  -0.02    -0.07  -0.00   0.08    -0.13   0.11   0.06
  51   7     0.04  -0.01  -0.30    -0.15   0.07   0.29    -0.52  -0.03  -0.16
  52   1    -0.02  -0.01  -0.07    -0.02   0.02   0.07    -0.12   0.02  -0.06
  53   1    -0.00  -0.01  -0.07    -0.03   0.03   0.07    -0.14  -0.02  -0.06
                     25                     26                     27
                        a                      a                      a 
 Frequencies --   183.3065               189.1487               192.2917
 Red. masses --     3.4862                 4.3687                 9.6818
 Frc consts  --     0.0000                 0.0000                 0.0000
 IR Inten    --   142.6735                50.5196                 5.4567
 Raman Activ --     0.0000                 0.0000                 0.0000
 Depolar     --     0.0000                 0.0000                 0.0000
 Atom AN      X      Y      Z        X      Y      Z        X      Y      Z
   1   8     0.10  -0.04  -0.10     0.12  -0.07  -0.13    -0.34   0.16   0.38
   2   6     0.04   0.01   0.02     0.02   0.01   0.01    -0.09  -0.06  -0.09
   3   1    -0.00   0.01   0.03    -0.01   0.01   0.02     0.02  -0.04  -0.10
   4   1     0.03   0.03   0.01     0.03   0.03   0.01    -0.09  -0.11  -0.04
   5   6    -0.03  -0.05   0.01    -0.07  -0.08   0.00     0.19   0.21  -0.07
   6   1    -0.01  -0.04   0.02    -0.02  -0.06   0.02     0.06   0.16  -0.06
   7   1    -0.03  -0.01  -0.02    -0.05  -0.02  -0.03     0.14   0.05   0.06
   8   7    -0.00   0.02   0.01    -0.03   0.00   0.01     0.09  -0.02  -0.09
   9   6    -0.04   0.06   0.05    -0.06   0.06   0.09     0.18  -0.17  -0.26
  10   1    -0.03   0.03   0.03    -0.04   0.03   0.05     0.10  -0.09  -0.13
  11   1     0.01   0.02   0.02     0.01   0.02   0.04    -0.02  -0.05  -0.10
  12   1    -0.03   0.01  -0.00    -0.03   0.01   0.01     0.10  -0.02  -0.02
  13   6     0.04   0.05  -0.03     0.04   0.05  -0.04    -0.10  -0.14   0.07
  14   1     0.01   0.01  -0.00     0.02   0.02  -0.02    -0.05  -0.06   0.04
  15   1     0.02   0.00  -0.02     0.03   0.00  -0.01    -0.07  -0.01   0.01
  16   1     0.02   0.03  -0.01     0.01   0.03  -0.01    -0.00  -0.07   0.03
  17   6    -0.00   0.01   0.01    -0.02   0.01   0.00     0.04  -0.01  -0.04
  18   1     0.01  -0.01  -0.00     0.00  -0.01  -0.01    -0.03   0.05   0.04
  19   1    -0.01  -0.00   0.02    -0.02  -0.00   0.02     0.07   0.02  -0.07
  20   1    -0.00   0.02  -0.00    -0.01   0.02  -0.00    -0.01  -0.08  -0.00
  21   1     0.02  -0.00  -0.02     0.02  -0.00  -0.02    -0.05  -0.01   0.07
  22   6     0.01  -0.02   0.00    -0.03   0.02  -0.01     0.06  -0.01   0.03
  23   8    -0.02  -0.04  -0.01    -0.05   0.03  -0.02     0.13  -0.01   0.06
  24   7     0.03   0.01   0.02    -0.04   0.02   0.03     0.06  -0.05  -0.08
  25   1    -0.00   0.00   0.01    -0.01   0.02   0.00     0.02  -0.05  -0.01
  26   1     0.01  -0.00   0.01     0.00   0.02   0.00    -0.02  -0.04  -0.02
  27   7     0.06  -0.01  -0.04    -0.02  -0.01  -0.01    -0.01   0.03   0.06
  28   1     0.01  -0.02   0.00     0.00  -0.00  -0.00    -0.02   0.01   0.00
  29   1     0.01  -0.02  -0.00    -0.00   0.00  -0.01    -0.00   0.02   0.03
  30   6    -0.01  -0.01   0.01    -0.01  -0.00   0.03    -0.01   0.01   0.01
  31   8    -0.02  -0.02   0.01    -0.02  -0.01   0.02    -0.00   0.04   0.01
  32   7     0.04   0.08   0.00     0.12   0.26  -0.01     0.04   0.11   0.01
  33   1    -0.05  -0.09   0.01    -0.16  -0.31   0.02    -0.07  -0.13   0.01
  34   1    -0.06  -0.11   0.02    -0.21  -0.41   0.06    -0.09  -0.18   0.03
  35   7    -0.02  -0.06  -0.00    -0.11  -0.25  -0.00    -0.05  -0.11   0.01
  36   1     0.04   0.10   0.01     0.17   0.41   0.03     0.07   0.16   0.01
  37   1     0.03   0.07  -0.00     0.14   0.30   0.00     0.06   0.13   0.00
  38   6    -0.04  -0.00  -0.01     0.01  -0.00   0.01    -0.00  -0.00  -0.00
  39   8    -0.04  -0.00  -0.03     0.01  -0.00   0.02    -0.00  -0.01  -0.01
  40   7    -0.04  -0.00  -0.00     0.02  -0.00  -0.00    -0.01   0.00   0.00
  41   1     0.02  -0.05   0.01    -0.01   0.02  -0.01     0.00  -0.01   0.00
  42   1     0.03  -0.06   0.03    -0.01   0.03  -0.01     0.01  -0.01   0.01
  43   7     0.07  -0.09   0.01    -0.03   0.03  -0.00     0.02  -0.01   0.00
  44   1    -0.12   0.11  -0.04     0.05  -0.05   0.02    -0.02   0.03  -0.01
  45   1    -0.08   0.09  -0.03     0.03  -0.04   0.01    -0.02   0.02  -0.01
  46   6     0.03   0.04  -0.03     0.02  -0.02   0.01    -0.04   0.02  -0.01
  47   8    -0.07  -0.01   0.06     0.05   0.02  -0.02    -0.04  -0.03   0.01
  48   7    -0.20  -0.05   0.21     0.07  -0.02  -0.06    -0.03   0.07   0.03
  49   1     0.35   0.17  -0.30    -0.11  -0.06   0.09     0.05   0.04  -0.02
  50   1     0.46   0.22  -0.44    -0.14  -0.08   0.14     0.04   0.06  -0.05
  51   7    -0.04   0.02   0.00     0.06  -0.01   0.01    -0.10   0.01  -0.01
  52   1    -0.01  -0.02   0.01     0.01   0.00   0.00    -0.02   0.01  -0.01
  53   1    -0.05  -0.02   0.05     0.03   0.01  -0.01    -0.03   0.00   0.00
                     28                     29                     30
                        a                      a                      a 
 Frequencies --   256.1943               261.9212               278.6097
 Red. masses --    10.8854                 4.1405                 5.7130
 Frc consts  --     0.0000                 0.0000                 0.0000
 IR Inten    --    23.3532                41.6767                 7.0062
 Raman Activ --     0.0000                 0.0000                 0.0000
 Depolar     --     0.0000                 0.0000                 0.0000
 Atom AN      X      Y      Z        X      Y      Z        X      Y      Z
   1   8     0.15   0.26   0.44     0.04   0.12   0.16     0.32  -0.05   0.13
   2   6     0.16   0.16   0.15     0.07   0.08   0.08    -0.06  -0.06  -0.27
   3   1     0.03   0.09   0.05     0.01   0.04   0.04     0.07   0.02  -0.23
   4   1     0.08  -0.02   0.05     0.05   0.00   0.03    -0.19  -0.06  -0.12
   5   6    -0.01  -0.00  -0.08    -0.01  -0.00  -0.04     0.03  -0.01   0.08
   6   1     0.01  -0.07  -0.02     0.00  -0.04  -0.01    -0.01   0.05   0.03
   7   1    -0.06   0.02  -0.04    -0.03   0.01  -0.02     0.04  -0.01   0.04
   8   7     0.02  -0.06  -0.07    -0.00  -0.03  -0.03     0.02   0.00   0.09
   9   6     0.02  -0.04   0.02     0.01  -0.02   0.01    -0.05   0.06   0.07
  10   1     0.01  -0.03   0.00    -0.00  -0.01   0.01     0.09  -0.10  -0.10
  11   1     0.00   0.02  -0.00     0.01   0.00   0.01    -0.17   0.13  -0.06
  12   1     0.01  -0.01   0.04     0.00  -0.01   0.01     0.02   0.03   0.22
  13   6    -0.01  -0.08   0.01    -0.01  -0.03   0.00     0.05   0.03  -0.10
  14   1    -0.01  -0.03   0.01     0.00  -0.00  -0.00    -0.05  -0.06   0.05
  15   1    -0.01  -0.02  -0.00    -0.00  -0.01   0.01    -0.01  -0.02  -0.18
  16   1     0.01  -0.03   0.01    -0.01  -0.02   0.00     0.10   0.11  -0.01
  17   6     0.10  -0.10  -0.15     0.04  -0.04  -0.08    -0.13   0.03   0.24
  18   1     0.05  -0.07  -0.09     0.03  -0.04  -0.05    -0.19   0.22   0.25
  19   1    -0.01  -0.05  -0.02    -0.02  -0.03   0.00     0.16   0.10  -0.12
  20   1     0.06   0.02  -0.04     0.03   0.03  -0.03    -0.12  -0.27   0.11
  21   1     0.05   0.05   0.11     0.02   0.02   0.04     0.04  -0.05   0.12
  22   6    -0.16  -0.01  -0.12    -0.06  -0.02  -0.05    -0.07   0.00  -0.06
  23   8    -0.27  -0.02  -0.19    -0.12  -0.03  -0.08    -0.10   0.02  -0.09
  24   7    -0.12   0.13   0.06    -0.03   0.07   0.04    -0.06   0.04   0.03
  25   1    -0.10   0.01   0.06    -0.05   0.00   0.04    -0.03   0.03   0.01
  26   1    -0.02  -0.02   0.09    -0.00  -0.02   0.05     0.00   0.01   0.02
  27   7     0.04  -0.18  -0.22     0.04  -0.08  -0.10     0.02  -0.09  -0.10
  28   1     0.08  -0.01  -0.05     0.05   0.00  -0.02     0.04  -0.02  -0.01
  29   1     0.02  -0.06  -0.12     0.01  -0.04  -0.04     0.01  -0.03  -0.05
  30   6    -0.01   0.00   0.00    -0.00   0.00   0.00     0.01   0.01  -0.00
  31   8    -0.01  -0.00   0.00    -0.00  -0.00   0.00     0.01   0.01  -0.00
  32   7    -0.01   0.01   0.02    -0.00   0.00   0.01     0.00  -0.02  -0.02
  33   1    -0.01  -0.00   0.01    -0.00  -0.00   0.00     0.01   0.01  -0.01
  34   1     0.00  -0.00   0.01    -0.00  -0.00   0.00     0.01   0.02  -0.01
  35   7    -0.01   0.00   0.00    -0.01  -0.00   0.00     0.00  -0.01  -0.00
  36   1    -0.00   0.00   0.00     0.00   0.01   0.00     0.00   0.00  -0.00
  37   1    -0.00   0.00   0.00     0.00   0.01   0.00     0.00   0.00   0.00
  38   6     0.02   0.00   0.02    -0.04  -0.01  -0.01    -0.00  -0.00   0.00
  39   8     0.02  -0.00   0.02    -0.05   0.02  -0.01    -0.00  -0.00   0.01
  40   7     0.06  -0.06   0.02    -0.12   0.15  -0.07    -0.01   0.02  -0.01
  41   1    -0.07   0.11  -0.03     0.17  -0.24   0.07     0.01  -0.02   0.00
  42   1    -0.11   0.17  -0.07     0.27  -0.40   0.15     0.02  -0.03   0.01
  43   7    -0.08   0.06  -0.01     0.14  -0.15   0.04     0.00  -0.01   0.00
  44   1     0.16  -0.16   0.05    -0.36   0.34  -0.12    -0.02   0.02  -0.01
  45   1     0.07  -0.09   0.04    -0.17   0.19  -0.07    -0.01   0.01  -0.00
  46   6     0.02  -0.01   0.01     0.03   0.00   0.03     0.01   0.00   0.00
  47   8    -0.01   0.02   0.02     0.02   0.05   0.01    -0.00   0.02   0.01
  48   7    -0.02  -0.07   0.00     0.05  -0.01  -0.03     0.00  -0.02  -0.01
  49   1     0.04   0.01  -0.06    -0.11  -0.06   0.09    -0.01  -0.01  -0.00
  50   1     0.08  -0.00  -0.07    -0.11  -0.07   0.11    -0.00  -0.01   0.00
  51   7     0.05   0.00   0.01     0.07   0.01   0.01     0.02   0.01   0.01
  52   1    -0.01  -0.00   0.02     0.04   0.01  -0.01    -0.00   0.00   0.01
  53   1     0.01  -0.01  -0.01     0.02  -0.00   0.00     0.01   0.00  -0.01
                     31                     32                     33
                        a                      a                      a 
 Frequencies --   311.1306               313.0570               327.6693
 Red. masses --     3.0223                 8.9518                 3.7390
 Frc consts  --     0.0000                 0.0000                 0.0000
 IR Inten    --    62.3207                 8.3846                95.2189
 Raman Activ --     0.0000                 0.0000                 0.0000
 Depolar     --     0.0000                 0.0000                 0.0000
 Atom AN      X      Y      Z        X      Y      Z        X      Y      Z
   1   8    -0.09   0.07  -0.11     0.29  -0.33   0.08     0.07   0.05   0.13
   2   6     0.01   0.03  -0.05    -0.07  -0.17   0.05    -0.08  -0.02  -0.22
   3   1     0.00  -0.00  -0.01    -0.00  -0.02  -0.03     0.03   0.01  -0.17
   4   1     0.01   0.01  -0.01    -0.06  -0.05   0.01    -0.15  -0.05  -0.09
   5   6     0.01  -0.00   0.00    -0.05  -0.04   0.02     0.02   0.03   0.03
   6   1     0.00  -0.00   0.00    -0.02   0.01   0.00    -0.01   0.04   0.03
   7   1    -0.01   0.01   0.01     0.03  -0.04  -0.02     0.02   0.01   0.02
   8   7     0.01  -0.04   0.01    -0.05   0.16  -0.01     0.06  -0.02   0.05
   9   6    -0.01   0.00   0.11    -0.01   0.02  -0.33     0.07  -0.04   0.04
  10   1    -0.00  -0.02   0.03    -0.04   0.12  -0.06    -0.07   0.10   0.11
  11   1    -0.00   0.03   0.03     0.05  -0.14  -0.05     0.15  -0.11   0.08
  12   1    -0.00  -0.00   0.06    -0.02   0.01  -0.26    -0.02  -0.03  -0.16
  13   6     0.02  -0.03  -0.11    -0.07   0.13   0.40     0.03  -0.03  -0.17
  14   1     0.01  -0.03  -0.03    -0.01   0.12   0.10     0.23   0.10  -0.31
  15   1     0.01  -0.02  -0.05    -0.02   0.07   0.23     0.10   0.02   0.29
  16   1     0.00   0.02  -0.04    -0.03  -0.09   0.13    -0.31  -0.15  -0.16
  17   6    -0.03  -0.05   0.05     0.03   0.22  -0.10    -0.09   0.05   0.21
  18   1    -0.00  -0.02   0.02    -0.05   0.12  -0.03     0.05  -0.07   0.03
  19   1    -0.01  -0.02   0.02     0.07   0.09  -0.07    -0.10  -0.01   0.16
  20   1    -0.02  -0.01   0.01     0.02   0.01  -0.01    -0.06   0.13   0.01
  21   1    -0.01   0.03  -0.04     0.07  -0.10   0.04     0.01  -0.03   0.06
  22   6     0.01  -0.00   0.04    -0.05   0.01  -0.02    -0.03   0.01  -0.02
  23   8     0.02   0.01   0.03    -0.06   0.02  -0.04    -0.03   0.01  -0.03
  24   7     0.17   0.17  -0.16     0.00   0.09  -0.01    -0.03   0.01   0.02
  25   1    -0.17  -0.29   0.17    -0.07  -0.06   0.06    -0.00   0.02  -0.00
  26   1    -0.32  -0.53   0.40    -0.09  -0.14   0.13     0.01   0.03  -0.01
  27   7    -0.02   0.01   0.07     0.01  -0.06  -0.04     0.01  -0.03  -0.04
  28   1     0.11   0.28  -0.15     0.06   0.08  -0.05     0.01  -0.03   0.01
  29   1     0.04   0.10  -0.03     0.02   0.01  -0.04     0.00  -0.02  -0.02
  30   6     0.01   0.01   0.00    -0.00   0.00  -0.00     0.03   0.04  -0.00
  31   8     0.00  -0.00   0.00     0.00   0.02  -0.01     0.02   0.01   0.00
  32   7    -0.01  -0.02   0.00    -0.00   0.01  -0.00    -0.05  -0.11   0.01
  33   1     0.01   0.02  -0.00    -0.01  -0.01   0.00     0.06   0.10  -0.01
  34   1     0.02   0.04  -0.01    -0.01  -0.02   0.00     0.09   0.20  -0.03
  35   7    -0.01  -0.02  -0.00     0.01   0.01  -0.01    -0.05  -0.12  -0.01
  36   1     0.02   0.04   0.00    -0.01  -0.03  -0.00     0.08   0.22   0.01
  37   1     0.01   0.02   0.00    -0.00  -0.01  -0.01     0.05   0.11   0.01
  38   6     0.01  -0.01   0.00     0.00  -0.00   0.00    -0.00   0.00   0.00
  39   8     0.01  -0.02   0.00     0.00  -0.00   0.01    -0.00   0.00   0.00
  40   7    -0.02  -0.00   0.01    -0.00   0.01   0.00     0.01  -0.00   0.00
  41   1    -0.00  -0.01   0.00     0.00  -0.00   0.00    -0.00   0.01  -0.00
  42   1    -0.01   0.01   0.01     0.00  -0.00   0.00    -0.01   0.01  -0.01
  43   7    -0.02   0.00  -0.00    -0.01  -0.00   0.00     0.00  -0.00   0.00
  44   1     0.01  -0.01   0.00     0.00  -0.01   0.00    -0.00   0.00  -0.00
  45   1     0.00  -0.01   0.00    -0.00  -0.00   0.00    -0.00   0.00   0.00
  46   6     0.00   0.00   0.00     0.01  -0.01   0.00    -0.00  -0.01   0.00
  47   8     0.01  -0.00   0.00     0.01  -0.01   0.00    -0.02  -0.01   0.01
  48   7     0.00  -0.01  -0.00     0.01  -0.01   0.00     0.00  -0.00   0.01
  49   1     0.00  -0.00  -0.00    -0.00  -0.00   0.00     0.00   0.00  -0.00
  50   1     0.00  -0.00  -0.00     0.00  -0.00   0.00     0.02   0.01  -0.02
  51   7     0.01   0.00   0.00     0.00  -0.01  -0.01     0.00  -0.00  -0.00
  52   1    -0.01  -0.00   0.01    -0.00  -0.00  -0.00     0.00  -0.00  -0.00
  53   1     0.00   0.00   0.00     0.00  -0.00  -0.01    -0.00  -0.00   0.00
                     34                     35                     36
                        a                      a                      a 
 Frequencies --   329.8881               352.0032               358.4223
 Red. masses --     3.8091                 3.9574                 5.2324
 Frc consts  --     0.0000                 0.0000                 0.0000
 IR Inten    --   453.8900               356.3191                18.0982
 Raman Activ --     0.0000                 0.0000                 0.0000
 Depolar     --     0.0000                 0.0000                 0.0000
 Atom AN      X      Y      Z        X      Y      Z        X      Y      Z
   1   8     0.04   0.03   0.06    -0.01   0.02   0.01    -0.19   0.13   0.02
   2   6    -0.05  -0.00  -0.13     0.01   0.01   0.02    -0.01   0.11   0.15
   3   1     0.02   0.01  -0.09    -0.01   0.01   0.01    -0.07   0.05   0.14
   4   1    -0.08  -0.02  -0.05     0.01   0.00   0.01     0.12   0.03   0.07
   5   6     0.01   0.02   0.02    -0.03  -0.02  -0.02    -0.23  -0.15  -0.14
   6   1    -0.01   0.03   0.01    -0.01  -0.02   0.00    -0.09  -0.18   0.04
   7   1     0.01   0.01   0.02    -0.02  -0.00  -0.02    -0.19  -0.03  -0.15
   8   7     0.02  -0.02   0.04    -0.00  -0.00  -0.01     0.04  -0.05  -0.07
   9   6     0.03  -0.03   0.02     0.02  -0.02  -0.00     0.18  -0.17  -0.07
  10   1    -0.02   0.02   0.04    -0.00  -0.00   0.01     0.00  -0.02   0.04
  11   1     0.05  -0.04   0.03     0.01  -0.01   0.00     0.11  -0.13   0.02
  12   1     0.00  -0.01  -0.04     0.01  -0.00  -0.01     0.08  -0.03  -0.12
  13   6     0.01  -0.02  -0.10     0.03   0.01   0.00     0.27   0.08  -0.03
  14   1     0.09   0.03  -0.13     0.01   0.02  -0.01     0.14   0.12  -0.08
  15   1     0.04   0.00   0.09     0.02  -0.00   0.01     0.16  -0.01   0.11
  16   1    -0.12  -0.04  -0.07     0.00   0.00  -0.00    -0.00  -0.01  -0.04
  17   6    -0.06   0.01   0.12    -0.02   0.01   0.01    -0.10   0.04   0.09
  18   1     0.04  -0.06   0.00    -0.03   0.04   0.03    -0.20   0.25   0.23
  19   1    -0.07  -0.02   0.11     0.03   0.02  -0.03     0.19   0.12  -0.15
  20   1    -0.03   0.10   0.01    -0.02  -0.04   0.01    -0.14  -0.29   0.06
  21   1     0.01  -0.01   0.03     0.01   0.00  -0.01    -0.01   0.04  -0.05
  22   6    -0.01   0.01  -0.01    -0.02  -0.05   0.02     0.01  -0.00   0.00
  23   8    -0.01   0.01  -0.01    -0.02  -0.03   0.01     0.01  -0.01   0.01
  24   7    -0.01   0.01   0.00     0.04   0.06  -0.04     0.01  -0.01   0.01
  25   1    -0.01  -0.01   0.01    -0.02  -0.02   0.02     0.00  -0.00   0.00
  26   1    -0.02  -0.03   0.03    -0.03  -0.06   0.05     0.01   0.02  -0.02
  27   7     0.00  -0.02  -0.01     0.04   0.06  -0.04    -0.01   0.01   0.02
  28   1     0.02   0.02  -0.02    -0.06  -0.15   0.09    -0.00   0.01  -0.00
  29   1     0.01   0.00  -0.01    -0.02  -0.05   0.02    -0.00   0.01   0.01
  30   6    -0.04  -0.09   0.01     0.00  -0.00   0.00    -0.00   0.01  -0.00
  31   8    -0.02  -0.01  -0.00     0.00   0.00  -0.00     0.00   0.02  -0.00
  32   7     0.13   0.22  -0.05     0.00   0.00  -0.00     0.01   0.01  -0.00
  33   1    -0.11  -0.21   0.01    -0.00  -0.00  -0.00    -0.00  -0.01   0.00
  34   1    -0.21  -0.45   0.06    -0.01  -0.01   0.00    -0.01  -0.02   0.00
  35   7     0.11   0.26   0.04     0.00   0.01   0.00     0.01   0.01   0.00
  36   1    -0.18  -0.49  -0.02    -0.00  -0.01  -0.00    -0.01  -0.04  -0.00
  37   1    -0.12  -0.23  -0.01    -0.00  -0.00   0.00    -0.00  -0.01  -0.00
  38   6     0.00  -0.00   0.00    -0.10   0.09  -0.03     0.01  -0.01   0.00
  39   8     0.00  -0.00   0.00    -0.06   0.06   0.02     0.01  -0.01  -0.00
  40   7    -0.00   0.00  -0.00     0.17  -0.27   0.08    -0.02   0.03  -0.01
  41   1     0.00  -0.00   0.00    -0.11   0.19  -0.05     0.01  -0.02   0.01
  42   1     0.00  -0.00   0.00    -0.32   0.43  -0.22     0.04  -0.05   0.03
  43   7    -0.00   0.00   0.00     0.21  -0.17   0.06    -0.03   0.02  -0.01
  44   1     0.00  -0.00   0.00    -0.37   0.35  -0.14     0.05  -0.05   0.02
  45   1     0.00  -0.00  -0.00    -0.11   0.14  -0.04     0.01  -0.02   0.00
  46   6     0.00  -0.00   0.00     0.01  -0.00  -0.00     0.00   0.00   0.00
  47   8    -0.00   0.00   0.00     0.00   0.01  -0.01     0.00   0.00   0.00
  48   7     0.00  -0.00  -0.00     0.02   0.02  -0.01    -0.00  -0.01   0.00
  49   1    -0.00  -0.00   0.00    -0.05  -0.02   0.05     0.01   0.00  -0.01
  50   1    -0.00  -0.00   0.00    -0.06  -0.02   0.06     0.01  -0.00  -0.01
  51   7     0.00   0.00   0.00     0.00  -0.01   0.00     0.00   0.00  -0.00
  52   1     0.00   0.00   0.00     0.06   0.01  -0.02    -0.01   0.00   0.00
  53   1     0.00   0.00  -0.00    -0.00  -0.00   0.01    -0.00  -0.00  -0.00
                     37                     38                     39
                        a                      a                      a 
 Frequencies --   376.3388               382.6869               416.2241
 Red. masses --     4.6904                 2.3554                 3.3817
 Frc consts  --     0.0000                 0.0000                 0.0000
 IR Inten    --     4.5729                 0.9605               331.0718
 Raman Activ --     0.0000                 0.0000                 0.0000
 Depolar     --     0.0000                 0.0000                 0.0000
 Atom AN      X      Y      Z        X      Y      Z        X      Y      Z
   1   8    -0.06   0.05  -0.01    -0.03  -0.01  -0.09     0.01   0.01   0.01
   2   6     0.17  -0.03  -0.01     0.06  -0.01   0.04     0.01  -0.00  -0.02
   3   1     0.07  -0.05  -0.02     0.01  -0.02   0.03     0.01   0.00  -0.01
   4   1     0.03  -0.01  -0.01     0.04   0.02   0.02    -0.01  -0.01  -0.01
   5   6     0.23   0.04   0.05     0.02  -0.03   0.01    -0.00  -0.01  -0.00
   6   1     0.09   0.04  -0.03     0.03  -0.02  -0.02    -0.00  -0.01   0.00
   7   1     0.10   0.02   0.08    -0.00   0.00   0.02    -0.01  -0.00  -0.00
   8   7    -0.01  -0.05  -0.01    -0.04  -0.06  -0.00     0.00  -0.01   0.01
   9   6    -0.23   0.18   0.20    -0.16   0.06   0.06    -0.01  -0.00  -0.01
  10   1    -0.22   0.26   0.23     0.14  -0.19  -0.20    -0.00   0.00  -0.01
  11   1     0.18  -0.01   0.16    -0.32   0.24  -0.12    -0.01  -0.00  -0.00
  12   1    -0.21  -0.02  -0.17     0.01   0.04   0.40    -0.01  -0.00  -0.00
  13   6    -0.18  -0.15  -0.05    -0.00  -0.04   0.11     0.01  -0.01   0.02
  14   1    -0.00  -0.06  -0.06     0.20   0.15  -0.20    -0.00  -0.00   0.01
  15   1    -0.09   0.00   0.06     0.09   0.03   0.41     0.00  -0.00  -0.00
  16   1    -0.12  -0.10  -0.03    -0.28  -0.20  -0.06     0.01   0.00   0.01
  17   6     0.12  -0.07  -0.17     0.10   0.06  -0.18    -0.01   0.03   0.01
  18   1    -0.13   0.18   0.06    -0.04   0.07  -0.08     0.00  -0.00  -0.01
  19   1     0.22   0.06  -0.29     0.10   0.05  -0.10    -0.00   0.01   0.02
  20   1     0.06  -0.29   0.03     0.06  -0.03  -0.02    -0.00   0.02  -0.00
  21   1    -0.01   0.03  -0.02    -0.03   0.03  -0.01     0.01   0.01  -0.00
  22   6    -0.00  -0.00   0.00     0.02  -0.01   0.01    -0.05  -0.13   0.07
  23   8     0.00  -0.00   0.00     0.02  -0.01   0.01    -0.04  -0.07   0.01
  24   7     0.00   0.00   0.00     0.02  -0.02  -0.02     0.12   0.18  -0.11
  25   1    -0.00  -0.00   0.00     0.01  -0.00  -0.01    -0.05  -0.04   0.04
  26   1     0.01   0.02  -0.01    -0.00  -0.01  -0.00    -0.09  -0.19   0.17
  27   7    -0.00   0.01  -0.00    -0.01   0.02   0.02     0.08   0.24  -0.12
  28   1    -0.01  -0.02   0.01    -0.01   0.00   0.00    -0.29  -0.66   0.39
  29   1    -0.00  -0.00   0.00    -0.00   0.01   0.02    -0.03  -0.05   0.03
  30   6    -0.01   0.01  -0.01     0.01  -0.00  -0.00    -0.00  -0.00   0.00
  31   8     0.00   0.01  -0.01     0.01   0.00  -0.00    -0.00   0.00   0.00
  32   7     0.00   0.02   0.01     0.01   0.00  -0.00    -0.00   0.00  -0.00
  33   1    -0.01  -0.01   0.01    -0.00   0.01   0.00     0.00  -0.00  -0.00
  34   1    -0.01  -0.04   0.01    -0.01  -0.03   0.01    -0.00  -0.00  -0.00
  35   7     0.00   0.02  -0.01    -0.01   0.01   0.01     0.00   0.00  -0.00
  36   1    -0.02  -0.05  -0.00    -0.01  -0.00   0.00     0.00  -0.01   0.00
  37   1    -0.00  -0.01  -0.01    -0.00  -0.00   0.01     0.00  -0.00  -0.00
  38   6    -0.00  -0.00   0.00     0.00  -0.00  -0.00    -0.01  -0.02   0.01
  39   8    -0.00  -0.00   0.00     0.00  -0.00  -0.00    -0.02  -0.02   0.01
  40   7    -0.00   0.00  -0.00    -0.00  -0.00   0.00    -0.01   0.06  -0.07
  41   1     0.00  -0.00   0.00    -0.00  -0.00   0.00     0.02   0.00  -0.01
  42   1     0.01  -0.01   0.00    -0.00   0.00   0.00     0.09  -0.14   0.03
  43   7    -0.00   0.00   0.00     0.00   0.00  -0.00    -0.03   0.07   0.01
  44   1     0.01  -0.01   0.00     0.00  -0.00  -0.00     0.13  -0.10   0.08
  45   1     0.00  -0.00  -0.00     0.00  -0.00  -0.00     0.03   0.01  -0.02
  46   6     0.00  -0.00  -0.00    -0.01   0.00   0.01     0.01   0.01   0.00
  47   8     0.00  -0.01  -0.00    -0.02   0.00   0.02     0.01   0.01   0.00
  48   7    -0.00   0.00   0.00    -0.00  -0.00  -0.00     0.00  -0.01  -0.00
  49   1     0.00   0.00   0.00    -0.01  -0.00  -0.00    -0.00  -0.00  -0.00
  50   1    -0.01   0.00   0.00     0.02   0.00  -0.01    -0.00  -0.01   0.00
  51   7    -0.00  -0.00  -0.01    -0.00   0.00   0.00    -0.02  -0.01   0.00
  52   1     0.01  -0.00  -0.00    -0.00   0.00   0.00     0.02   0.02  -0.02
  53   1    -0.00   0.00   0.01     0.00  -0.00  -0.00     0.01   0.01  -0.02
                     40                     41                     42
                        a                      a                      a 
 Frequencies --   427.8614               444.1474               453.8890
 Red. masses --     8.5699                 1.6494                 7.6786
 Frc consts  --     0.0000                 0.0000                 0.0000
 IR Inten    --     1.2091                 5.4660                48.1862
 Raman Activ --     0.0000                 0.0000                 0.0000
 Depolar     --     0.0000                 0.0000                 0.0000
 Atom AN      X      Y      Z        X      Y      Z        X      Y      Z
   1   8     0.11  -0.20  -0.02     0.00  -0.00   0.00     0.00   0.00   0.00
   2   6    -0.10  -0.03   0.15    -0.02   0.01   0.01     0.01  -0.00  -0.01
   3   1    -0.04   0.00   0.06    -0.00   0.00   0.00     0.00  -0.00  -0.00
   4   1     0.00   0.01   0.05    -0.01   0.01   0.00     0.00  -0.00  -0.00
   5   6    -0.04   0.12  -0.03    -0.01   0.01   0.02     0.01   0.01  -0.01
   6   1    -0.01   0.06  -0.02    -0.00   0.00   0.01     0.01   0.01  -0.01
   7   1     0.05   0.00  -0.02    -0.00   0.00   0.00     0.01   0.00   0.01
   8   7    -0.06   0.32  -0.09     0.00   0.01   0.02    -0.02  -0.01  -0.02
   9   6     0.35   0.08   0.12     0.01  -0.01  -0.01     0.00  -0.01   0.02
  10   1     0.08  -0.12   0.06    -0.00   0.01  -0.00    -0.00  -0.01   0.01
  11   1     0.11   0.02   0.04     0.00  -0.01  -0.00     0.01   0.00   0.01
  12   1     0.21   0.08   0.07     0.00  -0.00  -0.02     0.00  -0.00   0.01
  13   6    -0.26   0.22  -0.10    -0.00   0.01  -0.02     0.01   0.01   0.01
  14   1    -0.01   0.04  -0.10    -0.00  -0.01  -0.01    -0.00   0.01   0.01
  15   1    -0.09   0.10   0.06    -0.00  -0.00  -0.02     0.01  -0.00   0.01
  16   1    -0.16  -0.00  -0.06    -0.00   0.01  -0.01     0.01   0.00   0.01
  17   6    -0.04  -0.40  -0.06     0.02  -0.01   0.00    -0.02   0.01  -0.01
  18   1     0.06  -0.13   0.13     0.00   0.00   0.00    -0.01   0.00  -0.00
  19   1    -0.10  -0.17  -0.18     0.01  -0.00  -0.01    -0.01   0.00   0.00
  20   1    -0.00  -0.25   0.02     0.01  -0.01   0.01    -0.01   0.01  -0.00
  21   1     0.02  -0.05   0.00     0.00  -0.00  -0.00    -0.00  -0.00   0.00
  22   6    -0.01  -0.00   0.00    -0.00  -0.00  -0.00     0.02  -0.01  -0.02
  23   8    -0.01   0.00   0.00    -0.00  -0.00   0.00     0.03  -0.02  -0.02
  24   7     0.00   0.02  -0.00     0.00   0.00  -0.00     0.01  -0.01   0.05
  25   1    -0.00   0.00   0.00    -0.00   0.00  -0.00     0.00   0.04   0.00
  26   1    -0.01  -0.02   0.02    -0.00  -0.00   0.00     0.03   0.00   0.02
  27   7     0.01   0.01  -0.01     0.00   0.00  -0.00    -0.03  -0.01  -0.00
  28   1    -0.01  -0.04   0.02    -0.00  -0.00   0.00     0.02   0.10  -0.07
  29   1    -0.00  -0.01  -0.00    -0.00  -0.00  -0.00    -0.02  -0.02   0.03
  30   6     0.00   0.00  -0.01     0.03  -0.01  -0.07    -0.00   0.00   0.00
  31   8     0.01   0.00  -0.01     0.03  -0.01  -0.07    -0.00   0.00   0.00
  32   7     0.01   0.00   0.02     0.00  -0.12   0.06    -0.00  -0.00  -0.01
  33   1    -0.01  -0.01   0.01     0.14   0.48   0.07     0.00   0.00  -0.00
  34   1     0.01  -0.00   0.01    -0.08  -0.44   0.12    -0.00   0.00  -0.00
  35   7    -0.02   0.01   0.00    -0.02   0.13  -0.01     0.01  -0.00  -0.00
  36   1    -0.02  -0.03  -0.00     0.04   0.46  -0.03     0.01   0.00   0.00
  37   1     0.00   0.02   0.01    -0.23  -0.44   0.13    -0.00  -0.01  -0.00
  38   6    -0.00  -0.00   0.00     0.00   0.00   0.00    -0.23  -0.14   0.13
  39   8    -0.00  -0.00   0.00     0.00  -0.00  -0.00    -0.27  -0.18   0.08
  40   7    -0.00   0.00  -0.01    -0.00   0.00  -0.00     0.10  -0.03  -0.36
  41   1     0.00   0.00  -0.00     0.00   0.00  -0.00     0.33   0.06  -0.04
  42   1     0.00  -0.01   0.00     0.00  -0.00   0.00    -0.06  -0.07  -0.36
  43   7    -0.00   0.00   0.00    -0.00   0.00  -0.00     0.21   0.26   0.20
  44   1     0.01  -0.01   0.01     0.00  -0.00   0.00     0.18   0.10   0.28
  45   1     0.00   0.00  -0.00    -0.00   0.00   0.00     0.13   0.21  -0.17
  46   6    -0.00   0.00   0.00    -0.00  -0.00  -0.00     0.00   0.01   0.01
  47   8     0.00  -0.00   0.00    -0.00   0.00  -0.00    -0.00   0.03   0.00
  48   7    -0.00  -0.00  -0.00     0.00   0.00   0.00     0.00  -0.00   0.01
  49   1    -0.01  -0.00  -0.00     0.00   0.00   0.00     0.03   0.01  -0.02
  50   1     0.01  -0.00  -0.01     0.00   0.00  -0.00    -0.02  -0.01   0.02
  51   7    -0.00   0.00   0.00     0.00  -0.00   0.00    -0.02  -0.02   0.00
  52   1     0.00   0.00  -0.00     0.00  -0.00   0.00     0.06   0.03  -0.04
  53   1     0.00   0.00  -0.00     0.00   0.00   0.00    -0.00   0.00   0.01
                     43                     44                     45
                        a                      a                      a 
 Frequencies --   454.8107               466.0676               471.2421
 Red. masses --     8.3601                 7.9061                 8.5275
 Frc consts  --     0.0000                 0.0000                 0.0000
 IR Inten    --     2.2432                 3.5083                 6.9879
 Raman Activ --     0.0000                 0.0000                 0.0000
 Depolar     --     0.0000                 0.0000                 0.0000
 Atom AN      X      Y      Z        X      Y      Z        X      Y      Z
   1   8     0.03  -0.01  -0.00     0.09  -0.05   0.00     0.02  -0.02  -0.02
   2   6    -0.08   0.05   0.07    -0.10   0.04   0.11    -0.15   0.09   0.13
   3   1    -0.01   0.01   0.00    -0.00  -0.00  -0.00    -0.04   0.03   0.03
   4   1    -0.04   0.04   0.02    -0.06   0.04   0.02    -0.05   0.06   0.03
   5   6    -0.04   0.05   0.15     0.05   0.18   0.21    -0.15   0.01   0.20
   6   1    -0.01   0.06   0.02     0.06   0.22  -0.06    -0.06  -0.01   0.09
   7   1     0.02   0.01   0.08     0.16   0.04   0.22    -0.06  -0.00   0.01
   8   7    -0.06  -0.04   0.12    -0.29  -0.11   0.06     0.10   0.03   0.21
   9   6    -0.05  -0.11  -0.06    -0.04  -0.34   0.09    -0.04   0.01  -0.22
  10   1     0.00  -0.01  -0.04    -0.04  -0.13   0.06     0.05   0.07  -0.13
  11   1    -0.03  -0.08  -0.02     0.03  -0.15   0.05    -0.09  -0.06  -0.08
  12   1     0.00  -0.02  -0.05     0.06  -0.05  -0.03    -0.03  -0.01  -0.09
  13   6     0.06   0.04  -0.12     0.21   0.19  -0.14    -0.05  -0.06  -0.23
  14   1     0.03  -0.00  -0.05     0.07   0.14  -0.06     0.04  -0.11  -0.12
  15   1     0.05  -0.02  -0.07     0.19  -0.05  -0.07    -0.04  -0.01  -0.09
  16   1    -0.00   0.08  -0.05     0.06   0.16  -0.05    -0.09   0.04  -0.10
  17   6     0.10   0.02  -0.06    -0.04   0.03  -0.28     0.31  -0.04   0.02
  18   1    -0.01   0.02  -0.06    -0.07   0.03  -0.17     0.05   0.01  -0.02
  19   1     0.05   0.01  -0.05     0.04   0.03  -0.12     0.10  -0.01  -0.07
  20   1     0.08  -0.00   0.01     0.08   0.01  -0.04     0.14  -0.05   0.04
  21   1     0.01  -0.01  -0.00     0.02  -0.02   0.01     0.01  -0.01  -0.01
  22   6    -0.00  -0.00  -0.00    -0.01   0.01   0.01    -0.02  -0.02  -0.03
  23   8     0.00  -0.00   0.00    -0.01   0.01   0.01     0.04  -0.02  -0.00
  24   7    -0.00   0.00  -0.00    -0.01  -0.00  -0.02    -0.01   0.03   0.04
  25   1     0.00   0.01  -0.00     0.01   0.00  -0.02    -0.01   0.07   0.00
  26   1    -0.01  -0.01   0.01    -0.02  -0.01  -0.00     0.01  -0.03   0.06
  27   7     0.00   0.00  -0.01     0.03  -0.01  -0.01    -0.04   0.01  -0.03
  28   1     0.00  -0.01   0.00     0.02  -0.01   0.01    -0.01   0.00  -0.01
  29   1    -0.00  -0.00  -0.00     0.01  -0.01  -0.01    -0.01  -0.00   0.00
  30   6     0.10  -0.06  -0.26    -0.04   0.02   0.09    -0.03   0.02   0.08
  31   8     0.11  -0.06  -0.28    -0.04   0.02   0.10    -0.04   0.02   0.09
  32   7     0.21  -0.02   0.31    -0.08   0.01  -0.10    -0.07   0.02  -0.09
  33   1    -0.17  -0.06   0.22     0.05  -0.00  -0.07     0.04  -0.01  -0.07
  34   1     0.27   0.02   0.16    -0.09   0.01  -0.05    -0.08   0.02  -0.05
  35   7    -0.36   0.10   0.06     0.12  -0.04  -0.02     0.10  -0.04  -0.01
  36   1    -0.31  -0.01  -0.07     0.11   0.00   0.03     0.09  -0.01   0.03
  37   1    -0.01   0.17   0.23     0.00  -0.05  -0.08     0.01  -0.03  -0.07
  38   6    -0.01  -0.00   0.00     0.01   0.00  -0.00    -0.02  -0.01   0.01
  39   8    -0.01  -0.00   0.00     0.01   0.01   0.00    -0.01  -0.02   0.00
  40   7     0.00  -0.00  -0.01    -0.01   0.00   0.01     0.03  -0.02  -0.02
  41   1     0.01   0.00  -0.00    -0.00  -0.01   0.00    -0.05   0.08  -0.03
  42   1     0.00  -0.00  -0.01    -0.00   0.01   0.01     0.04  -0.06   0.01
  43   7     0.00   0.01   0.00    -0.01  -0.01  -0.00     0.00   0.04   0.01
  44   1     0.00   0.00   0.01     0.00  -0.01  -0.00    -0.02   0.04   0.00
  45   1     0.00   0.00  -0.00    -0.01   0.00   0.00     0.05  -0.04   0.01
  46   6    -0.01  -0.01  -0.01     0.01   0.03   0.03    -0.07  -0.12  -0.12
  47   8    -0.01   0.00  -0.01     0.04  -0.01   0.04    -0.16   0.03  -0.15
  48   7     0.00   0.01   0.01    -0.01  -0.05  -0.03     0.02   0.19   0.09
  49   1     0.01   0.00   0.01    -0.06  -0.02  -0.02     0.17   0.06   0.13
  50   1    -0.00   0.01  -0.00     0.05  -0.04  -0.03    -0.11   0.19   0.03
  51   7     0.01  -0.01   0.01    -0.05   0.04  -0.04     0.18  -0.16   0.12
  52   1     0.01  -0.01   0.00    -0.02   0.03  -0.01     0.07  -0.12   0.05
  53   1     0.01   0.00   0.00    -0.02  -0.00  -0.02     0.07   0.03   0.08
                     46                     47                     48
                        a                      a                      a 
 Frequencies --   475.0849               479.6816               484.5420
 Red. masses --     2.6196                 8.3862                 7.9414
 Frc consts  --     0.0000                 0.0000                 0.0000
 IR Inten    --     7.4448                19.0943                22.3098
 Raman Activ --     0.0000                 0.0000                 0.0000
 Depolar     --     0.0000                 0.0000                 0.0000
 Atom AN      X      Y      Z        X      Y      Z        X      Y      Z
   1   8    -0.00   0.00  -0.00     0.01  -0.00   0.02     0.03   0.00   0.03
   2   6     0.02  -0.01  -0.02     0.09  -0.06  -0.06    -0.01   0.02   0.01
   3   1     0.01  -0.01  -0.00     0.02  -0.02  -0.01     0.00   0.01  -0.01
   4   1     0.01  -0.01  -0.00     0.03  -0.04  -0.02    -0.02   0.00  -0.00
   5   6     0.02   0.00  -0.03     0.12   0.04  -0.12    -0.02  -0.01   0.04
   6   1     0.01   0.01  -0.02     0.05   0.07  -0.08    -0.01  -0.02   0.02
   7   1     0.01   0.00   0.00     0.08   0.01   0.04    -0.02  -0.00  -0.00
   8   7    -0.02  -0.01  -0.03    -0.12  -0.05  -0.15     0.02   0.01   0.04
   9   6     0.01  -0.01   0.04     0.04  -0.07   0.19    -0.01   0.01  -0.04
  10   1    -0.01  -0.01   0.02    -0.04  -0.08   0.11     0.01   0.02  -0.02
  11   1     0.02   0.01   0.01     0.08   0.03   0.07    -0.01  -0.01  -0.01
  12   1     0.01  -0.00   0.01     0.04  -0.01   0.07    -0.01  -0.00  -0.02
  13   6     0.01   0.01   0.03     0.10   0.08   0.15    -0.02  -0.01  -0.04
  14   1    -0.00   0.02   0.02    -0.01   0.11   0.08     0.00  -0.02  -0.02
  15   1     0.01   0.00   0.01     0.07  -0.00   0.07    -0.01   0.00  -0.02
  16   1     0.02  -0.00   0.02     0.08  -0.01   0.07    -0.02   0.01  -0.02
  17   6    -0.05   0.01  -0.01    -0.24   0.03  -0.07     0.05  -0.01   0.01
  18   1    -0.01  -0.00   0.00    -0.06   0.00  -0.01     0.01  -0.00  -0.00
  19   1    -0.02   0.00   0.01    -0.07   0.01   0.03     0.01  -0.00  -0.01
  20   1    -0.02   0.01  -0.01    -0.09   0.04  -0.04     0.02  -0.01   0.01
  21   1    -0.00   0.00   0.00    -0.00   0.00   0.01     0.00  -0.00   0.01
  22   6     0.00   0.02   0.01     0.00  -0.06  -0.10     0.10  -0.18  -0.20
  23   8    -0.01   0.01   0.01     0.10  -0.08  -0.05     0.15  -0.22  -0.18
  24   7    -0.01  -0.02  -0.02     0.02   0.07   0.13     0.16   0.09   0.29
  25   1     0.01  -0.01  -0.01    -0.06   0.12   0.06    -0.09   0.26   0.10
  26   1    -0.01   0.00  -0.02     0.09  -0.00   0.11     0.22  -0.02   0.23
  27   7     0.02  -0.01   0.01    -0.15   0.04  -0.05    -0.37   0.16  -0.02
  28   1     0.02   0.02  -0.01    -0.09   0.02  -0.05    -0.26   0.09  -0.14
  29   1     0.00  -0.01  -0.01    -0.04   0.04   0.04    -0.10   0.13   0.18
  30   6     0.00  -0.00  -0.01     0.01  -0.01  -0.03    -0.00   0.00   0.01
  31   8     0.00  -0.00  -0.01     0.01  -0.01  -0.03    -0.00   0.00   0.01
  32   7     0.01  -0.00   0.01     0.02  -0.01   0.03    -0.01   0.00  -0.01
  33   1    -0.00   0.00   0.01    -0.01   0.01   0.02     0.00  -0.00  -0.01
  34   1     0.01  -0.00   0.01     0.03  -0.01   0.02    -0.01   0.00  -0.00
  35   7    -0.01   0.00   0.00    -0.04   0.02   0.00     0.01  -0.00   0.00
  36   1    -0.01   0.00  -0.00    -0.03   0.01  -0.01     0.01  -0.00   0.00
[...]
  44   1     0.00   0.00  -0.00    -0.03  -0.02   0.02    -0.24  -0.20   0.14
  45   1     0.00   0.00   0.01     0.06   0.08   0.07     0.48   0.59   0.49
  46   6    -0.00   0.01   0.00     0.00   0.00   0.01     0.00  -0.00  -0.00
  47   8    -0.00  -0.00  -0.00    -0.00  -0.00  -0.00     0.00   0.00   0.00
  48   7     0.00  -0.00   0.00    -0.00  -0.00  -0.00     0.00   0.00   0.00
  49   1     0.00  -0.00  -0.00     0.00  -0.00  -0.00    -0.00   0.01   0.00
  50   1     0.00   0.00   0.00     0.01   0.01   0.02    -0.01  -0.01  -0.01
  51   7    -0.09   0.08  -0.01     0.11   0.06   0.23    -0.00  -0.01  -0.03
  52   1    -0.06  -0.05  -0.15    -0.30  -0.28  -0.84     0.04   0.04   0.12
  53   1     0.42  -0.26   0.20    -0.11   0.07  -0.03    -0.03   0.01  -0.01
                    142                    143                    144
                        a                      a                      a 
 Frequencies --  3478.5654              3495.3638              3499.6142
 Red. masses --     1.4879                 1.4509                 1.4382
 Frc consts  --     0.0000                 0.0000                 0.0000
 IR Inten    --    36.5592                21.7997                38.2792
 Raman Activ --     0.0000                 0.0000                 0.0000
 Depolar     --     0.0000                 0.0000                 0.0000
 Atom AN      X      Y      Z        X      Y      Z        X      Y      Z
   1   8    -0.00  -0.00  -0.00    -0.00  -0.00  -0.00    -0.00   0.00  -0.00
   2   6    -0.00  -0.00   0.00     0.00   0.00  -0.00     0.00  -0.00   0.00
   3   1    -0.00  -0.00  -0.00    -0.00   0.00  -0.00    -0.00  -0.00  -0.00
   4   1     0.00   0.00  -0.00    -0.00   0.00   0.00     0.00   0.00  -0.00
   5   6    -0.00   0.00  -0.00    -0.00   0.00  -0.00    -0.00   0.00  -0.00
   6   1     0.00   0.00   0.00     0.00   0.00   0.00     0.00  -0.00   0.00
   7   1    -0.00   0.00  -0.00    -0.00  -0.00   0.00     0.00  -0.00   0.00
   8   7    -0.00  -0.00  -0.00     0.00   0.00   0.00    -0.00   0.00  -0.00
   9   6    -0.00   0.00   0.00    -0.00  -0.00  -0.00     0.00  -0.00  -0.00
  10   1     0.00   0.00   0.00     0.00   0.00   0.00     0.00  -0.00  -0.00
  11   1     0.00   0.00  -0.00     0.00   0.00   0.00     0.00  -0.00   0.00
  12   1     0.00  -0.00  -0.00    -0.00   0.00   0.00    -0.00   0.00   0.00
  13   6    -0.00  -0.00  -0.00    -0.00   0.00  -0.00     0.00  -0.00  -0.00
  14   1     0.00   0.00   0.00     0.00   0.00   0.00    -0.00  -0.00  -0.00
  15   1     0.00   0.00  -0.00    -0.00  -0.00  -0.00     0.00  -0.00   0.00
  16   1     0.00  -0.00   0.00    -0.00   0.00   0.00     0.00  -0.00   0.00
  17   6    -0.00   0.00   0.00     0.00  -0.00  -0.00    -0.00  -0.00   0.00
  18   1    -0.00  -0.00  -0.00    -0.00   0.00  -0.00    -0.00  -0.00   0.00
  19   1     0.00  -0.00  -0.00     0.00   0.00  -0.00    -0.00   0.00   0.00
  20   1     0.00  -0.00  -0.00    -0.00   0.00   0.00     0.00  -0.00  -0.00
  21   1     0.02   0.01   0.01     0.00   0.00   0.00     0.00   0.00   0.00
  22   6    -0.00   0.00  -0.00     0.00  -0.00  -0.00     0.00  -0.00   0.00
  23   8     0.00  -0.00  -0.00    -0.00   0.00   0.00    -0.00   0.00  -0.00
  24   7    -0.16   0.05  -0.09    -0.00   0.00   0.00    -0.00   0.00  -0.00
  25   1     0.42   0.17   0.69     0.00   0.00   0.00     0.00   0.00   0.00
  26   1     0.18  -0.36  -0.34     0.00  -0.00  -0.00     0.00  -0.00  -0.00
  27   7     0.01  -0.00   0.00    -0.00  -0.00  -0.00    -0.00  -0.00  -0.00
  28   1    -0.01   0.01   0.01    -0.01   0.01   0.01    -0.00   0.00   0.00
  29   1    -0.02   0.01  -0.00     0.01  -0.01   0.00     0.00  -0.00   0.00
  30   6     0.00  -0.00  -0.00     0.00   0.00   0.00    -0.00   0.00  -0.00
  31   8    -0.00   0.00   0.00     0.00  -0.00  -0.00    -0.00  -0.00  -0.00
  32   7     0.00  -0.00   0.00     0.00  -0.00  -0.00    -0.11   0.07   0.02
  33   1    -0.00   0.00  -0.00    -0.00   0.00  -0.00     0.25  -0.10   0.38
  34   1    -0.00   0.00   0.00    -0.00   0.00   0.00     0.16  -0.15  -0.47
  35   7     0.00  -0.00   0.00     0.00  -0.00   0.00    -0.05   0.04  -0.11
  36   1     0.00  -0.00  -0.00     0.00  -0.00  -0.00    -0.22   0.06   0.47
  37   1    -0.00   0.00   0.00    -0.00   0.00   0.00     0.41  -0.20  -0.04
  38   6    -0.00   0.00  -0.00     0.00   0.00   0.00     0.00  -0.00  -0.00
  39   8     0.00  -0.00   0.00    -0.00  -0.00   0.00    -0.00   0.00   0.00
  40   7    -0.00  -0.00  -0.00     0.11   0.10   0.10     0.00   0.00   0.00
  41   1    -0.00   0.00   0.00     0.15  -0.08  -0.66     0.00  -0.00  -0.00
  42   1     0.00   0.00  -0.00    -0.58  -0.29   0.27    -0.00  -0.00   0.00
  43   7     0.00  -0.00   0.00    -0.01  -0.01  -0.01    -0.00   0.00   0.00
  44   1     0.00   0.00  -0.00     0.01   0.01  -0.01     0.00   0.00  -0.00
  45   1    -0.00  -0.00  -0.00     0.02   0.03   0.02    -0.00  -0.00  -0.00
  46   6     0.00   0.00   0.00     0.00   0.00   0.00     0.00  -0.00  -0.00
  47   8    -0.00  -0.00  -0.00    -0.00  -0.00  -0.00    -0.00   0.00   0.00
  48   7    -0.00  -0.00  -0.00     0.00  -0.00   0.00     0.00  -0.00   0.00
  49   1     0.00  -0.00  -0.00    -0.00   0.01   0.00    -0.00   0.00   0.00
  50   1     0.00   0.00   0.00    -0.01  -0.01  -0.01    -0.00  -0.00  -0.00
  51   7     0.00  -0.00   0.00    -0.00  -0.00  -0.00    -0.00   0.00   0.00
  52   1    -0.00  -0.00  -0.00     0.00   0.00   0.01    -0.00  -0.00  -0.00
  53   1    -0.02   0.01  -0.01     0.00  -0.00   0.00     0.00  -0.00   0.00
                    145                    146                    147
                        a                      a                      a 
 Frequencies --  3502.9945              3503.5736              3534.2627
 Red. masses --     1.4421                 1.4622                 1.9267
 Frc consts  --     0.0000                 0.0000                 0.0000
 IR Inten    --    18.8291                 7.5026                14.0264
 Raman Activ --     0.0000                 0.0000                 0.0000
 Depolar     --     0.0000                 0.0000                 0.0000
 Atom AN      X      Y      Z        X      Y      Z        X      Y      Z
   1   8    -0.00  -0.00  -0.00     0.00   0.00   0.00    -0.00  -0.00  -0.00
   2   6     0.00  -0.00  -0.00     0.00  -0.00   0.00     0.00   0.00  -0.00
   3   1    -0.00   0.00  -0.00    -0.00  -0.00   0.00    -0.00  -0.00   0.00
   4   1     0.00  -0.00   0.00    -0.00  -0.00   0.00    -0.00  -0.00   0.00
   5   6    -0.00  -0.00  -0.00     0.00   0.00  -0.00     0.00  -0.00   0.00
   6   1     0.00   0.00   0.00    -0.00  -0.00  -0.00    -0.00   0.00  -0.00
   7   1    -0.00  -0.00   0.00    -0.00  -0.00   0.00    -0.00  -0.00  -0.00
   8   7     0.00  -0.00   0.00    -0.00  -0.00  -0.00    -0.00   0.00  -0.00
   9   6    -0.00   0.00  -0.00    -0.00   0.00   0.00     0.00   0.00   0.00
  10   1     0.00  -0.00   0.00    -0.00   0.00   0.00    -0.00   0.00  -0.00
  11   1    -0.00   0.00   0.00     0.00  -0.00  -0.00    -0.00  -0.00  -0.00
  12   1    -0.00  -0.00  -0.00     0.00  -0.00   0.00     0.00  -0.00   0.00
  13   6    -0.00  -0.00  -0.00    -0.00   0.00   0.00     0.00   0.00   0.00
  14   1     0.00   0.00   0.00    -0.00   0.00   0.00    -0.00  -0.00  -0.00
  15   1    -0.00  -0.00   0.00    -0.00  -0.00   0.00    -0.00  -0.00   0.00
  16   1    -0.00   0.00  -0.00     0.00   0.00  -0.00    -0.00   0.00  -0.00
  17   6     0.00   0.00  -0.00    -0.00   0.00   0.00    -0.00   0.00  -0.00
  18   1    -0.00   0.00   0.00    -0.00  -0.00   0.00    -0.00  -0.00   0.00
  19   1     0.00  -0.00   0.00    -0.00   0.00   0.00     0.00  -0.00   0.00
  20   1    -0.00   0.00   0.00     0.00  -0.00  -0.00    -0.00   0.00   0.00
  21   1     0.00   0.00   0.00    -0.00  -0.00  -0.00     0.00   0.00   0.00
  22   6     0.00  -0.00  -0.00     0.00  -0.00  -0.00     0.01  -0.00  -0.00
  23   8    -0.00   0.00   0.00    -0.00   0.00   0.00    -0.00   0.00   0.00
  24   7    -0.00   0.00   0.00     0.00  -0.00   0.00     0.00   0.03   0.04
  25   1     0.00   0.00   0.00    -0.00  -0.00  -0.00    -0.05  -0.02  -0.08
  26   1     0.00  -0.00  -0.00    -0.00   0.00   0.00     0.05  -0.09  -0.08
  27   7     0.00   0.00   0.00    -0.00   0.00   0.00     0.13  -0.15  -0.17
  28   1     0.00  -0.00  -0.00     0.00  -0.00  -0.00    -0.39   0.55   0.66
  29   1    -0.00   0.00  -0.00    -0.00   0.00  -0.00    -0.10   0.03  -0.03
  30   6    -0.00   0.00   0.00     0.00  -0.00  -0.00    -0.00   0.00   0.00
  31   8     0.00  -0.00  -0.00    -0.00   0.00   0.00     0.00  -0.00  -0.00
  32   7    -0.00   0.00   0.00     0.11  -0.07  -0.02     0.00  -0.00  -0.00
  33   1     0.00  -0.00   0.00    -0.25   0.10  -0.39    -0.00  -0.00  -0.00
  34   1     0.00  -0.00  -0.01    -0.16   0.14   0.46    -0.00   0.00   0.00
  35   7     0.00  -0.00   0.00    -0.06   0.04  -0.11    -0.00   0.00   0.00
  36   1     0.00  -0.00  -0.01    -0.21   0.06   0.46     0.00  -0.00  -0.00
  37   1    -0.01   0.00   0.00     0.43  -0.20  -0.05     0.00  -0.00  -0.00
  38   6    -0.00  -0.00  -0.00    -0.00  -0.00  -0.00     0.00   0.00  -0.00
  39   8     0.00   0.00   0.00     0.00   0.00   0.00    -0.00  -0.00   0.00
  40   7    -0.00  -0.00  -0.00    -0.00  -0.00  -0.00    -0.00  -0.00   0.00
  41   1    -0.00   0.00   0.01    -0.00   0.00   0.00    -0.00   0.00  -0.00
  42   1     0.01   0.00  -0.00     0.00   0.00  -0.00     0.01   0.01  -0.01
  43   7    -0.00   0.00   0.00    -0.00   0.00   0.00    -0.00   0.00   0.00
  44   1     0.01   0.01  -0.01     0.00   0.00  -0.00     0.00   0.00  -0.00
  45   1    -0.01  -0.01  -0.01    -0.00  -0.00  -0.00    -0.00  -0.00  -0.00
  46   6     0.00   0.00   0.00    -0.00   0.00  -0.00    -0.00  -0.00   0.00
  47   8    -0.00  -0.00  -0.00     0.00  -0.00  -0.00     0.00   0.00   0.00
  48   7     0.13  -0.08   0.10     0.00  -0.00   0.00     0.00  -0.00  -0.00
  49   1    -0.12   0.61   0.19    -0.00   0.01   0.00    -0.00   0.00   0.00
  50   1    -0.38  -0.32  -0.55    -0.01  -0.01  -0.01     0.00  -0.00  -0.00
  51   7     0.00   0.01   0.00     0.00   0.00   0.00     0.00   0.00   0.00
  52   1    -0.01  -0.01  -0.02    -0.00  -0.00  -0.00    -0.00  -0.00  -0.01
  53   1     0.00  -0.00   0.00    -0.00   0.00  -0.00     0.00   0.00   0.00
                    148                    149                    150
                        a                      a                      a 
 Frequencies --  3544.7490              3551.2079              3560.7370
 Red. masses --     2.0723                 2.1424                 2.1790
 Frc consts  --     0.0000                 0.0000                 0.0000
 IR Inten    --    24.5688                22.9075                19.1727
 Raman Activ --     0.0000                 0.0000                 0.0000
 Depolar     --     0.0000                 0.0000                 0.0000
 Atom AN      X      Y      Z        X      Y      Z        X      Y      Z
   1   8    -0.00   0.00   0.00     0.00  -0.00   0.00    -0.00  -0.00  -0.00
   2   6     0.00  -0.00  -0.00     0.00   0.00  -0.00    -0.00   0.00   0.00
   3   1    -0.00   0.00  -0.00     0.00   0.00   0.00    -0.00  -0.00  -0.00
   4   1    -0.00   0.00   0.00    -0.00  -0.00   0.00     0.00  -0.00   0.00
   5   6    -0.00  -0.00  -0.00     0.00  -0.00  -0.00     0.00  -0.00   0.00
   6   1     0.00   0.00   0.00     0.00  -0.00  -0.00    -0.00  -0.00  -0.00
   7   1    -0.00  -0.00   0.00     0.00  -0.00   0.00     0.00   0.00  -0.00
   8   7    -0.00   0.00   0.00    -0.00   0.00   0.00     0.00   0.00   0.00
   9   6    -0.00   0.00  -0.00     0.00  -0.00  -0.00     0.00  -0.00   0.00
  10   1     0.00   0.00   0.00     0.00  -0.00   0.00    -0.00  -0.00  -0.00
  11   1    -0.00   0.00   0.00    -0.00   0.00   0.00     0.00  -0.00  -0.00
  12   1     0.00  -0.00   0.00    -0.00   0.00   0.00    -0.00   0.00   0.00
  13   6    -0.00  -0.00  -0.00     0.00  -0.00  -0.00     0.00   0.00   0.00
  14   1     0.00   0.00   0.00    -0.00  -0.00  -0.00    -0.00  -0.00  -0.00
  15   1    -0.00  -0.00   0.00     0.00   0.00   0.00     0.00   0.00  -0.00
  16   1    -0.00   0.00   0.00    -0.00   0.00   0.00     0.00  -0.00  -0.00
  17   6     0.00  -0.00  -0.00     0.00  -0.00  -0.00    -0.00   0.00   0.00
  18   1    -0.00  -0.00   0.00     0.00   0.00   0.00     0.00   0.00   0.00
  19   1     0.00  -0.00   0.00    -0.00   0.00   0.00    -0.00   0.00   0.00
  20   1    -0.00   0.00   0.00    -0.00   0.00   0.00     0.00  -0.00  -0.00
  21   1     0.00  -0.00  -0.00    -0.01  -0.00  -0.00     0.00   0.00   0.00
  22   6     0.00  -0.00  -0.00     0.00   0.01   0.01    -0.00   0.00   0.00
  23   8    -0.00   0.00   0.00     0.00  -0.00  -0.00     0.00  -0.00  -0.00
  24   7    -0.00   0.00   0.00    -0.01   0.17   0.24    -0.00   0.00   0.00
  25   1    -0.00  -0.00  -0.00    -0.26  -0.08  -0.41    -0.00  -0.00  -0.00
  26   1     0.00  -0.00  -0.00     0.29  -0.56  -0.49     0.00  -0.01  -0.00
  27   7     0.00   0.00   0.00    -0.02   0.03   0.03    -0.00   0.00   0.00
  28   1     0.00  -0.00  -0.00     0.07  -0.10  -0.11     0.01  -0.01  -0.01
  29   1    -0.00   0.00  -0.00     0.02  -0.01   0.01     0.01  -0.00   0.00
  30   6    -0.00   0.00   0.00    -0.00   0.00   0.00     0.00  -0.00   0.00
  31   8     0.00  -0.00  -0.00     0.00  -0.00  -0.00    -0.00   0.00   0.00
  32   7     0.00   0.00   0.00     0.00  -0.00   0.00     0.00   0.00   0.00
  33   1    -0.00   0.00  -0.00    -0.00  -0.00   0.00    -0.00   0.00  -0.00
  34   1     0.00  -0.00  -0.00     0.00  -0.00  -0.00     0.00  -0.00  -0.00
  35   7     0.00  -0.00  -0.00    -0.00   0.00   0.00     0.00  -0.00  -0.00
  36   1    -0.00   0.00   0.00     0.00  -0.00  -0.00    -0.00   0.00   0.00
  37   1    -0.00   0.00   0.00     0.00  -0.00  -0.00    -0.00   0.00   0.00
  38   6     0.01   0.01   0.00    -0.00  -0.00   0.00    -0.01  -0.00   0.01
  39   8    -0.00  -0.00  -0.00     0.00   0.00  -0.00     0.00   0.00  -0.00
  40   7    -0.03  -0.01   0.04     0.00   0.00  -0.00    -0.18  -0.05   0.23
  41   1     0.03  -0.02  -0.13    -0.00   0.00   0.01     0.13  -0.10  -0.66
  42   1     0.08   0.04  -0.03    -0.01  -0.00   0.00     0.55   0.28  -0.23
  43   7     0.20   0.18  -0.06    -0.00  -0.00  -0.00    -0.03  -0.03   0.01
  44   1    -0.61  -0.50   0.41     0.00   0.00  -0.00     0.11   0.09  -0.07
  45   1    -0.16  -0.20  -0.19     0.00   0.00   0.00     0.03   0.04   0.03
  46   6    -0.00   0.00   0.00    -0.00  -0.00  -0.00     0.00  -0.00  -0.00
  47   8    -0.00  -0.00  -0.00     0.00   0.00   0.00     0.00  -0.00   0.00
  48   7     0.00  -0.00   0.00    -0.00   0.00   0.00    -0.00   0.00   0.00
  49   1    -0.00   0.00   0.00     0.00  -0.00  -0.00     0.00  -0.00  -0.00
  50   1    -0.00  -0.00  -0.00    -0.00  -0.00  -0.00    -0.00   0.00   0.00
  51   7    -0.00   0.00   0.00    -0.00   0.00  -0.00    -0.00  -0.00  -0.00
  52   1    -0.00  -0.00  -0.01     0.00   0.00   0.00     0.00   0.00   0.01
  53   1     0.01  -0.00   0.00     0.01  -0.00   0.00    -0.00   0.00  -0.00
                    151                    152                    153
                        a                      a                      a 
 Frequencies --  3563.8731              3569.3168              3572.9513
 Red. masses --     2.1905                 2.1769                 2.1885
 Frc consts  --     0.0000                 0.0000                 0.0000
 IR Inten    --    13.3174                11.1987                 9.3573
 Raman Activ --     0.0000                 0.0000                 0.0000
 Depolar     --     0.0000                 0.0000                 0.0000
 Atom AN      X      Y      Z        X      Y      Z        X      Y      Z
   1   8    -0.00   0.00  -0.00     0.00   0.00   0.00     0.00   0.00   0.00
   2   6     0.00  -0.00   0.00     0.00  -0.00  -0.00    -0.00  -0.00  -0.00
   3   1    -0.00  -0.00  -0.00     0.00  -0.00   0.00    -0.00   0.00  -0.00
   4   1     0.00   0.00  -0.00    -0.00   0.00   0.00    -0.00  -0.00   0.00
   5   6    -0.00  -0.00  -0.00     0.00   0.00  -0.00    -0.00  -0.00  -0.00
   6   1     0.00  -0.00   0.00    -0.00   0.00  -0.00     0.00  -0.00   0.00
   7   1     0.00  -0.00  -0.00    -0.00  -0.00   0.00     0.00   0.00  -0.00
   8   7    -0.00   0.00  -0.00     0.00  -0.00  -0.00     0.00  -0.00   0.00
   9   6    -0.00   0.00  -0.00    -0.00   0.00   0.00    -0.00   0.00  -0.00
  10   1     0.00  -0.00   0.00    -0.00   0.00  -0.00     0.00  -0.00   0.00
  11   1    -0.00   0.00   0.00     0.00  -0.00  -0.00    -0.00   0.00   0.00
  12   1     0.00  -0.00  -0.00     0.00  -0.00   0.00    -0.00  -0.00  -0.00
  13   6     0.00  -0.00  -0.00    -0.00   0.00   0.00    -0.00  -0.00  -0.00
  14   1     0.00  -0.00  -0.00    -0.00   0.00   0.00     0.00   0.00   0.00
  15   1     0.00   0.00  -0.00    -0.00   0.00   0.00    -0.00   0.00  -0.00
  16   1    -0.00   0.00   0.00     0.00   0.00  -0.00    -0.00   0.00  -0.00
  17   6    -0.00   0.00   0.00    -0.00   0.00   0.00     0.00  -0.00  -0.00
  18   1    -0.00  -0.00   0.00    -0.00  -0.00   0.00    -0.00  -0.00  -0.00
  19   1    -0.00   0.00   0.00    -0.00   0.00   0.00    -0.00   0.00  -0.00
  20   1     0.00  -0.00  -0.00     0.00  -0.00  -0.00    -0.00   0.00   0.00
  21   1     0.00   0.00   0.00    -0.00  -0.00  -0.00    -0.00  -0.00  -0.00
  22   6     0.00  -0.00   0.00     0.00  -0.00  -0.00    -0.00   0.00   0.00
  23   8    -0.00   0.00  -0.00     0.00   0.00   0.00     0.00  -0.00  -0.00
  24   7    -0.00  -0.00  -0.00     0.00  -0.00  -0.00     0.00   0.00   0.00
  25   1     0.00   0.00   0.00     0.00   0.00   0.00    -0.00  -0.00  -0.00
  26   1    -0.00   0.00   0.00    -0.00   0.00   0.00     0.00  -0.00  -0.00
  27   7    -0.00   0.00   0.00     0.00  -0.00  -0.00    -0.00   0.00   0.00
  28   1     0.00  -0.00  -0.00    -0.00   0.00   0.00     0.00  -0.00  -0.00
  29   1     0.00  -0.00   0.00    -0.00   0.00  -0.00     0.00  -0.00   0.00
  30   6    -0.01   0.00  -0.00    -0.00   0.00   0.01    -0.00   0.00   0.00
  31   8     0.00  -0.00   0.00     0.00  -0.00  -0.00     0.00  -0.00  -0.00
  32   7    -0.03  -0.00  -0.21     0.03   0.01   0.21     0.00   0.00   0.00
  33   1     0.27  -0.12   0.39    -0.28   0.12  -0.40    -0.00   0.00  -0.00
  34   1    -0.15   0.13   0.39     0.16  -0.14  -0.42     0.00  -0.00  -0.00
  35   7    -0.17   0.07   0.12    -0.16   0.07   0.11    -0.00   0.00   0.00
  36   1     0.18  -0.04  -0.42     0.17  -0.04  -0.41     0.00  -0.00  -0.00
  37   1     0.47  -0.23  -0.03     0.43  -0.21  -0.03     0.00  -0.00  -0.00
  38   6    -0.00  -0.00   0.00    -0.00   0.00   0.00    -0.00  -0.00   0.00
  39   8    -0.00   0.00   0.00     0.00  -0.00  -0.00    -0.00   0.00  -0.00
  40   7    -0.00  -0.00   0.00     0.00  -0.00  -0.00    -0.00   0.00   0.00
  41   1     0.00  -0.00  -0.00    -0.00   0.00   0.00     0.00  -0.00  -0.00
  42   1     0.00   0.00  -0.00    -0.00  -0.00   0.00     0.00   0.00  -0.00
  43   7     0.00   0.00   0.00     0.00  -0.00  -0.00    -0.00  -0.00  -0.00
  44   1     0.00  -0.00  -0.00    -0.00   0.00  -0.00    -0.00  -0.00   0.00
  45   1    -0.00  -0.00  -0.00    -0.00   0.00   0.00     0.00   0.00   0.00
  46   6     0.00  -0.00  -0.00    -0.00   0.00   0.00    -0.00  -0.01  -0.01
  47   8    -0.00   0.00   0.00     0.00  -0.00   0.00     0.00   0.00   0.00
  48   7    -0.00  -0.00  -0.00     0.00   0.00   0.00    -0.05  -0.24  -0.17
  49   1    -0.00   0.00   0.00     0.00  -0.00  -0.00    -0.15   0.67   0.19
  50   1     0.00   0.00   0.00    -0.00  -0.00  -0.00     0.34   0.25   0.47
  51   7    -0.00   0.00   0.00     0.00  -0.00   0.00    -0.00   0.00  -0.00
  52   1    -0.00  -0.00  -0.00     0.00   0.00   0.00     0.00   0.01   0.01
  53   1     0.00  -0.00   0.00    -0.00   0.00  -0.00     0.00  -0.00   0.00
