      -----------------------------------------------------------      
     |                   =====================                   |     
     |                           x T B                           |     
     |                   =====================                   |     
     |                         S. Grimme                         |     
     |          Mulliken Center for Theoretical Chemistry        |     
     |                    University of Bonn                     |     
      -----------------------------------------------------------      

   * xtb version 6.6.1 (unknown-commit) compiled by '@Linux' on 12/27/2023

   xtb is free software: you can redistribute it and/or modify it under
   the terms of the GNU Lesser General Public License as published by
   the Free Software Foundation, either version 3 of the License, or
   (at your option) any later version.
   
   xtb is distributed in the hope that it will be useful,
   but WITHOUT ANY WARRANTY; without even the implied warranty of
   MERCHANTABILITY or FITNESS FOR A PARTICULAR PURPOSE.  See the
   GNU Lesser General Public License for more details.
   
   Cite this work as:
   * C. Bannwarth, E. Caldeweyher, S. Ehlert, A. Hansen, P. Pracht,
     J. Seibert, S. Spicher, S. Grimme, WIREs Comput. Mol. Sci., 2020, 11,
     e01493. DOI: 10.1002/wcms.1493
   
   for GFN2-xTB:
   * C. Bannwarth, S. Ehlert and S. Grimme., J. Chem. Theory Comput., 2019,
     15, 1652-1671. DOI: 10.1021/acs.jctc.8b01176
   for GFN1-xTB:
   * S. Grimme, C. Bannwarth, P. Shushkov, J. Chem. Theory Comput., 2017,
     13, 1989-2009. DOI: 10.1021/acs.jctc.7b00118
   for GFN0-xTB:
   * P. Pracht, E. Caldeweyher, S. Ehlert, S. Grimme, ChemRxiv, 2019, preprint.
     DOI: 10.26434/chemrxiv.8326202.v1
   for GFN-FF:
   * S. Spicher and S. Grimme, Angew. Chem. Int. Ed., 2020, 59, 15665-15673.
     DOI: 10.1002/anie.202004239
   
   for ALPB and GBSA implicit solvation:
   * S. Ehlert, M. Stahn, S. Spicher, S. Grimme, J. Chem. Theory Comput.,
     2021, 17, 4250-4261. DOI: 10.1021/acs.jctc.1c00471
   
   for DFT-D4:
   * E. Caldeweyher, C. Bannwarth and S. Grimme, J. Chem. Phys., 2017,
     147, 034112. DOI: 10.1063/1.4993215
   * E. Caldeweyher, S. Ehlert, A. Hansen, H. Neugebauer, S. Spicher,
     C. Bannwarth and S. Grimme, J. Chem. Phys., 2019, 150, 154122.
     DOI: 10.1063/1.5090222
   * E. Caldeweyher, J.-M. Mewes, S. Ehlert and S. Grimme, Phys. Chem. Chem. Phys.
     2020, 22, 8499-8512. DOI: 10.1039/D0CP00502A
   
   for sTDA-xTB:
   * S. Grimme and C. Bannwarth, J. Chem. Phys., 2016, 145, 054103.
     DOI: 10.1063/1.4959605
   
   in the mass-spec context:
   * V. Asgeirsson, C. Bauer and S. Grimme, Chem. Sci., 2017, 8, 4879.
     DOI: 10.1039/c7sc00601b
   * J. Koopman and S. Grimme, ACS Omega 2019, 4, 12, 15120-15133.
     DOI: 10.1021/acsomega.9b02011
   
   for metadynamics refer to:
   * S. Grimme, J. Chem. Theory Comput., 2019, 155, 2847-2862
     DOI: 10.1021/acs.jctc.9b00143
   
   for SPH calculations refer to:
   * S. Spicher and S. Grimme, J. Chem. Theory Comput., 2021, 17, 1701-1714
     DOI: 10.1021/acs.jctc.0c01306
   
   with help from (in alphabetical order)
   P. Atkinson, C. Bannwarth, F. Bohle, G. Brandenburg, E. Caldeweyher
   M. Checinski, S. Dohm, S. Ehlert, S. Ehrlich, I. Gerasimov, C. Hölzer
   A. Katbashev, J. Koopman, C. Lavigne, S. Lehtola, F. März, M. Müller,
   F. Musil, H. Neugebauer, J. Pisarek, C. Plett, P. Pracht, F. Pultar,
   J. Seibert, P. Shushkov, S. Spicher, M. Stahn, M. Steiner, T. Strunk,
   J. Stückrath, T. Rose, and J. Unsleber
   
 * started run on 2024/01/10 at 18:28:28.879     

           -------------------------------------------------
          |                Calculation Setup                |
           -------------------------------------------------

          program call               : xtb struc.xyz --gfn2 --hess
          hostname                   : swaroop
          coordinate file            : struc.xyz
          omp threads                :                     1

   ID    Z sym.   atoms
    1    8 O      1, 23, 31, 39, 47
    2    6 C      2, 5, 9, 13, 17, 22, 30, 38, 46
    3    1 H      3, 4, 6, 7, 10-12, 14-16, 18-21, 25, 26, 28, 29, 33, 34,
                  36, 37, 41, 42, 44, 45, 49, 50, 52, 53
    4    7 N      8, 24, 27, 32, 35, 40, 43, 48, 51

molecular fragmentation (1/2 indicates fragments):
11111111111111111111122222222222222222222222222222222
# atoms in fragment 1/2:    21    32
 fragment masses (1/2) :      104.17      240.22
CMA distance (Bohr)    :   6.592
constraining FC (au)   :  0.0500

           -------------------------------------------------
          |                 G F N 2 - x T B                 |
           -------------------------------------------------

        Reference                      10.1021/acs.jctc.8b01176
      * Hamiltonian:
        H0-scaling (s, p, d)           1.850000    2.230000    2.230000
        zeta-weighting                 0.500000
      * Dispersion:
        s8                             2.700000
        a1                             0.520000
        a2                             5.000000
        s9                             5.000000
      * Repulsion:
        kExp                           1.500000    1.000000
        rExp                           1.000000
      * Coulomb:
        alpha                          2.000000
        third order                    shell-resolved
        anisotropic                    true
        a3                             3.000000
        a5                             4.000000
        cn-shift                       1.200000
        cn-exp                         4.000000
        max-rad                        5.000000


          ...................................................
          :                      SETUP                      :
          :.................................................:
          :  # basis functions                 122          :
          :  # atomic orbitals                 122          :
          :  # shells                           76          :
          :  # electrons                       140          :
          :  max. iterations                   250          :
          :  Hamiltonian                  GFN2-xTB          :
          :  restarted?                      false          :
          :  GBSA solvation                  false          :
          :  PC potential                    false          :
          :  electronic temp.          300.0000000     K    :
          :  accuracy                    1.0000000          :
          :  -> integral cutoff          0.2500000E+02      :
          :  -> integral neglect         0.1000000E-07      :
          :  -> SCF convergence          0.1000000E-05 Eh   :
          :  -> wf. convergence          0.1000000E-03 e    :
          :  Broyden damping             0.4000000          :
          ...................................................

 iter      E             dE          RMSdq      gap      omega  full diag
   1    -81.5434766 -0.815435E+02  0.434E+00    5.12       0.0  T
   2    -81.8377370 -0.294260E+00  0.234E+00    5.82       1.0  T
   3    -81.8433987 -0.566176E-02  0.115E+00    5.57       1.0  T
   4    -81.8447190 -0.132026E-02  0.234E-01    5.65       1.0  T
   5    -81.8455704 -0.851443E-03  0.911E-02    5.56       1.0  T
   6    -81.8455948 -0.243942E-04  0.268E-02    5.57       1.0  T
   7    -81.8455999 -0.507169E-05  0.743E-03    5.57       1.8  T
   8    -81.8456002 -0.262547E-06  0.270E-03    5.56       5.1  T
   9    -81.8456002 -0.168120E-07  0.918E-04    5.56      15.0  T
  10    -81.8456002 -0.494917E-08  0.186E-04    5.56      73.8  T

   *** convergence criteria satisfied after 10 iterations ***

         #    Occupation            Energy/Eh            Energy/eV
      -------------------------------------------------------------
         1        2.0000           -0.7865517             -21.4032
       ...           ...                  ...                  ...
        64        2.0000           -0.4946509             -13.4601
        65        2.0000           -0.4944422             -13.4545
        66        2.0000           -0.4932049             -13.4208
        67        2.0000           -0.4910708             -13.3627
        68        2.0000           -0.4843586             -13.1801
        69        2.0000           -0.4787612             -13.0278
        70        2.0000           -0.4719587             -12.8427 (HOMO)
        71                         -0.2674842              -7.2786 (LUMO)
        72                         -0.2648934              -7.2081
        73                         -0.2641352              -7.1875
        74                         -0.2487936              -6.7700
        75                         -0.1434565              -3.9036
       ...                                ...                  ...
       122                          0.5669918              15.4286
      -------------------------------------------------------------
                  HL-Gap            0.2044746 Eh            5.5640 eV
             Fermi-level           -0.3697214 Eh          -10.0606 eV

 SCC (total)                   0 d,  0 h,  0 min,  0.100 sec
 SCC setup                      ...        0 min,  0.000 sec (  0.304%)
 Dispersion                     ...        0 min,  0.001 sec (  0.605%)
 classical contributions        ...        0 min,  0.000 sec (  0.187%)
 integral evaluation            ...        0 min,  0.008 sec (  7.669%)
 iterations                     ...        0 min,  0.064 sec ( 64.021%)
 molecular gradient             ...        0 min,  0.027 sec ( 26.950%)
 printout                       ...        0 min,  0.000 sec (  0.252%)

         :::::::::::::::::::::::::::::::::::::::::::::::::::::
         ::                     SUMMARY                     ::
         :::::::::::::::::::::::::::::::::::::::::::::::::::::
         :: total energy             -80.931509945711 Eh    ::
         :: gradient norm              0.000039549466 Eh/a0 ::
         :: HOMO-LUMO gap              5.564036120210 eV    ::
         ::.................................................::
         :: SCC energy               -81.845600176325 Eh    ::
         :: -> isotropic ES            0.291218175228 Eh    ::
         :: -> anisotropic ES         -0.028696000976 Eh    ::
         :: -> anisotropic XC          0.020944509284 Eh    ::
         :: -> dispersion             -0.040744556783 Eh    ::
         :: repulsion energy           0.913574386069 Eh    ::
         :: add. restraining           0.000000000000 Eh    ::
         :: total charge               1.000000000000 e     ::
         :::::::::::::::::::::::::::::::::::::::::::::::::::::

           ------------------------------------------------- 
          |                Numerical Hessian                |
           ------------------------------------------------- 
step length          :   0.00500
SCC accuracy         :   0.30000
Hessian scale factor :   1.00000
frozen atoms in %    :   0.00000    0
RMS gradient         :   0.00004
estimated CPU  time      0.23 min
estimated wall time      0.23 min

writing file <hessian>.

 projected vibrational frequencies (cm⁻¹)
eigval :       -0.00    -0.00    -0.00    -0.00     0.00     0.00
eigval :       -4.89    10.68    15.34    19.47    28.33    29.22
eigval :       32.10    39.33    45.01    47.04    55.94    61.62
eigval :       68.68    77.94    81.29    83.37    92.35   101.41
eigval :      106.27   115.98   125.07   148.12   160.73   174.34
eigval :      183.31   189.15   192.29   256.19   261.92   278.61
eigval :      311.13   313.06   327.67   329.89   352.00   358.42
eigval :      376.34   382.69   416.22   427.86   444.15   453.89
eigval :      454.81   466.07   471.24   475.08   479.68   484.54
eigval :      489.63   498.85   502.18   524.67   531.70   544.98
eigval :      552.56   570.07   577.68   637.70   660.37   673.40
eigval :      674.21   684.13   703.61   769.76   781.29   844.98
eigval :      892.03   930.54   947.09   956.87   964.44   966.35
eigval :      995.20  1004.20  1004.95  1013.39  1015.49  1017.55
eigval :     1030.37  1040.20  1043.87  1081.04  1081.78  1084.69
eigval :     1088.95  1099.51  1107.99  1135.41  1174.46  1229.61
eigval :     1251.49  1284.64  1309.82  1339.46  1346.38  1350.06
eigval :     1352.80  1366.65  1369.18  1387.77  1399.24  1405.14
eigval :     1430.05  1436.51  1442.48  1444.46  1450.31  1451.97
eigval :     1456.67  1457.45  1470.48  1473.60  1474.85  1479.07
eigval :     1493.91  1496.70  1499.47  1501.79  1516.61  1673.08
eigval :     1701.44  1713.64  1727.90  2881.86  2960.99  2976.80
eigval :     2991.24  3030.18  3038.20  3039.91  3042.09  3043.49
eigval :     3045.87  3052.99  3055.21  3058.65  3063.20  3287.43
eigval :     3313.77  3388.21  3438.71  3478.57  3495.36  3499.61
eigval :     3502.99  3503.57  3534.26  3544.75  3551.21  3560.74
eigval :     3563.87  3569.32  3572.95
           -------------------------------------------------
          |                Property Printout                |
           -------------------------------------------------

    * Orbital Energies and Occupations

         #    Occupation            Energy/Eh            Energy/eV
      -------------------------------------------------------------
         1        2.0000           -0.7865513             -21.4032
       ...           ...                  ...                  ...
        58        2.0000           -0.5036650             -13.7054
        59        2.0000           -0.5026068             -13.6766
        60        2.0000           -0.5019047             -13.6575
        61        2.0000           -0.4992116             -13.5842
        62        2.0000           -0.4987668             -13.5721
        63        2.0000           -0.4975038             -13.5378
        64        2.0000           -0.4946510             -13.4601
        65        2.0000           -0.4944424             -13.4545
        66        2.0000           -0.4932056             -13.4208
        67        2.0000           -0.4910709             -13.3627
        68        2.0000           -0.4843608             -13.1801
        69        2.0000           -0.4787631             -13.0278
        70        2.0000           -0.4719609             -12.8427 (HOMO)
        71                         -0.2674844              -7.2786 (LUMO)
        72                         -0.2648909              -7.2080
        73                         -0.2641382              -7.1876
        74                         -0.2487977              -6.7701
        75                         -0.1434559              -3.9036
        76                         -0.1003645              -2.7311
        77                         -0.0941035              -2.5607
        78                         -0.0844327              -2.2975
        79                         -0.0726380              -1.9766
        80                         -0.0654152              -1.7800
        81                         -0.0637039              -1.7335
       ...                                ...                  ...
       122                          0.5669892              15.4286
      -------------------------------------------------------------
                  HL-Gap            0.2044765 Eh            5.5641 eV
             Fermi-level           -0.3697227 Eh          -10.0607 eV

     #   Z          covCN         q      C6AA      α(0)
     1   8 O        1.652    -0.481    22.478     6.400
     2   6 C        3.673     0.077    19.520     6.332
     3   1 H        0.924     0.051     2.309     2.376
     4   1 H        0.923     0.038     2.477     2.461
     5   6 C        3.763    -0.062    21.734     6.645
     6   1 H        0.924     0.121     1.607     1.983
     7   1 H        0.924     0.069     2.091     2.261
     8   7 N        3.623     0.160    18.549     6.397
     9   6 C        3.730    -0.119    22.879     6.828
    10   1 H        0.925     0.116     1.648     2.007
    11   1 H        0.925     0.107     1.722     2.052
    12   1 H        0.925     0.108     1.718     2.050
    13   6 C        3.736    -0.118    22.850     6.822
    14   1 H        0.925     0.125     1.573     1.961
    15   1 H        0.925     0.075     2.033     2.230
    16   1 H        0.925     0.118     1.632     1.998
    17   6 C        3.722    -0.107    22.654     6.797
    18   1 H        0.925     0.077     2.015     2.220
    19   1 H        0.925     0.096     1.819     2.109
    20   1 H        0.925     0.123     1.589     1.971
    21   1 H        0.801     0.337     0.621     1.238
    22   6 C        2.675     0.342    21.186     7.532
    23   8 O        0.861    -0.523    24.304     6.610
    24   7 N        2.645    -0.294    27.569     7.798
    25   1 H        0.860     0.212     1.047     1.603
    26   1 H        0.861     0.184     1.189     1.708
    27   7 N        2.644    -0.291    27.499     7.788
    28   1 H        0.861     0.184     1.192     1.710
    29   1 H        0.860     0.242     0.915     1.498
    30   6 C        2.675     0.346    21.126     7.521
    31   8 O        0.860    -0.518    24.194     6.595
    32   7 N        2.646    -0.290    27.475     7.785
    33   1 H        0.860     0.199     1.109     1.649
    34   1 H        0.861     0.185     1.184     1.704
    35   7 N        2.646    -0.289    27.466     7.784
    36   1 H        0.861     0.186     1.183     1.704
    37   1 H        0.860     0.199     1.110     1.650
    38   6 C        2.675     0.342    21.183     7.531
    39   8 O        0.860    -0.514    24.100     6.582
    40   7 N        2.645    -0.286    27.385     7.772
    41   1 H        0.860     0.205     1.082     1.629
    42   1 H        0.861     0.186     1.178     1.701
    43   7 N        2.645    -0.296    27.622     7.806
    44   1 H        0.861     0.184     1.189     1.708
    45   1 H        0.860     0.215     1.033     1.592
    46   6 C        2.675     0.343    21.179     7.531
    47   8 O        0.860    -0.537    24.624     6.653
    48   7 N        2.645    -0.296    27.622     7.806
    49   1 H        0.861     0.192     1.145     1.676
    50   1 H        0.861     0.182     1.205     1.720
    51   7 N        2.644    -0.339    28.731     7.961
    52   1 H        0.860     0.204     1.086     1.632
    53   1 H        0.860     0.229     0.968     1.541

 Mol. C6AA /au·bohr⁶  :      21803.472180
 Mol. C8AA /au·bohr⁸  :     454328.374974
 Mol. α(0) /au        :        220.618704


Wiberg/Mayer (AO) data.
largest (>0.10) Wiberg bond orders for each atom

 ---------------------------------------------------------------------------
     #   Z sym  total        # sym  WBO       # sym  WBO       # sym  WBO
 ---------------------------------------------------------------------------
     1   8 O    1.945 --     2 C    1.026    21 H    0.800
     2   6 C    3.968 --     1 O    1.026     5 C    0.990     3 H    0.968
                             4 H    0.963
     3   1 H    0.997 --     2 C    0.968
     4   1 H    0.998 --     2 C    0.963
     5   6 C    3.936 --     2 C    0.990     7 H    0.970     6 H    0.949
                             8 N    0.940
     6   1 H    0.985 --     5 C    0.949
     7   1 H    0.995 --     5 C    0.970
     8   7 N    3.823 --    17 C    0.962    13 C    0.955     9 C    0.951
                             5 C    0.940
     9   6 C    3.912 --    11 H    0.969    12 H    0.967    10 H    0.965
                             8 N    0.951
    10   1 H    0.987 --     9 C    0.965
    11   1 H    0.989 --     9 C    0.969
    12   1 H    0.988 --     9 C    0.967
    13   6 C    3.918 --    15 H    0.979    16 H    0.963    14 H    0.963
                             8 N    0.955
    14   1 H    0.984 --    13 C    0.963
    15   1 H    0.994 --    13 C    0.979
    16   1 H    0.986 --    13 C    0.963
    17   6 C    3.930 --    18 H    0.980    19 H    0.975     8 N    0.962
                            20 H    0.959
    18   1 H    0.994 --    17 C    0.980
    19   1 H    0.991 --    17 C    0.975
    20   1 H    0.985 --    17 C    0.959
    21   1 H    0.887 --     1 O    0.800
    22   6 C    3.960 --    23 O    1.472    27 N    1.267    24 N    1.214
    23   8 O    1.937 --    22 C    1.472    27 N    0.140    24 N    0.129
    24   7 N    3.322 --    22 C    1.214    26 H    0.947    25 H    0.933
                            23 O    0.129
    25   1 H    0.955 --    24 N    0.933
    26   1 H    0.966 --    24 N    0.947
    27   7 N    3.359 --    22 C    1.267    28 H    0.947    29 H    0.885
                            23 O    0.140
    28   1 H    0.966 --    27 N    0.947
    29   1 H    0.941 --    27 N    0.885
    30   6 C    3.959 --    31 O    1.541    35 N    1.206    32 N    1.205
    31   8 O    1.900 --    30 C    1.541    32 N    0.144    35 N    0.144
    32   7 N    3.321 --    30 C    1.205    34 H    0.947    33 H    0.943
                            31 O    0.144
    33   1 H    0.960 --    32 N    0.943
    34   1 H    0.965 --    32 N    0.947
    35   7 N    3.321 --    30 C    1.206    36 H    0.947    37 H    0.943
                            31 O    0.144
    36   1 H    0.965 --    35 N    0.947
    37   1 H    0.960 --    35 N    0.943
    38   6 C    3.960 --    39 O    1.516    43 N    1.220    40 N    1.214
    39   8 O    1.918 --    38 C    1.516    43 N    0.142    40 N    0.137
    40   7 N    3.327 --    38 C    1.214    42 H    0.946    41 H    0.941
                            39 O    0.137
    41   1 H    0.958 --    40 N    0.941
    42   1 H    0.965 --    40 N    0.946
    43   7 N    3.329 --    38 C    1.220    44 H    0.947    45 H    0.923
                            39 O    0.142
    44   1 H    0.966 --    43 N    0.947
    45   1 H    0.954 --    43 N    0.923
    46   6 C    3.958 --    47 O    1.524    51 N    1.225    48 N    1.199
    47   8 O    1.883 --    46 C    1.524    51 N    0.140    48 N    0.140
    48   7 N    3.317 --    46 C    1.199    50 H    0.948    49 H    0.946
                            47 O    0.140
    49   1 H    0.963 --    48 N    0.946
    50   1 H    0.967 --    48 N    0.948
    51   7 N    3.306 --    46 C    1.225    52 H    0.912    53 H    0.884
                            47 O    0.140
    52   1 H    0.958 --    51 N    0.912
    53   1 H    0.947 --    51 N    0.884
 ---------------------------------------------------------------------------

Topologies differ in total number of bonds
Writing topology from bond orders to xtbtopo.mol

molecular dipole:
                 x           y           z       tot (Debye)
 q only:       -0.250       0.134       1.519
   full:       -0.696      -0.126       1.224       3.593
molecular quadrupole (traceless):
                xx          xy          yy          xz          yz          zz
 q only:      -15.274      14.848     -13.387      13.283      56.095      28.661
  q+dip:      -17.516      15.005     -17.686      14.078      64.219      35.202
   full:      -17.778      15.298     -16.743      13.730      63.608      34.521

           -------------------------------------------------
          |               Frequency Printout                |
           -------------------------------------------------
 projected vibrational frequencies (cm⁻¹)
eigval :       -0.00    -0.00    -0.00    -0.00     0.00     0.00
eigval :       -4.89    10.68    15.34    19.47    28.33    29.22
eigval :       32.10    39.33    45.01    47.04    55.94    61.62
eigval :       68.68    77.94    81.29    83.37    92.35   101.41
eigval :      106.27   115.98   125.07   148.12   160.73   174.34
eigval :      183.31   189.15   192.29   256.19   261.92   278.61
eigval :      311.13   313.06   327.67   329.89   352.00   358.42
eigval :      376.34   382.69   416.22   427.86   444.15   453.89
eigval :      454.81   466.07   471.24   475.08   479.68   484.54
eigval :      489.63   498.85   502.18   524.67   531.70   544.98
eigval :      552.56   570.07   577.68   637.70   660.37   673.40
eigval :      674.21   684.13   703.61   769.76   781.29   844.98
eigval :      892.03   930.54   947.09   956.87   964.44   966.35
eigval :      995.20  1004.20  1004.95  1013.39  1015.49  1017.55
eigval :     1030.37  1040.20  1043.87  1081.04  1081.78  1084.69
eigval :     1088.95  1099.51  1107.99  1135.41  1174.46  1229.61
eigval :     1251.49  1284.64  1309.82  1339.46  1346.38  1350.06
eigval :     1352.80  1366.65  1369.18  1387.77  1399.24  1405.14
eigval :     1430.05  1436.51  1442.48  1444.46  1450.31  1451.97
eigval :     1456.67  1457.45  1470.48  1473.60  1474.85  1479.07
eigval :     1493.91  1496.70  1499.47  1501.79  1516.61  1673.08
eigval :     1701.44  1713.64  1727.90  2881.86  2960.99  2976.80
eigval :     2991.24  3030.18  3038.20  3039.91  3042.09  3043.49
eigval :     3045.87  3052.99  3055.21  3058.65  3063.20  3287.43
eigval :     3313.77  3388.21  3438.71  3478.57  3495.36  3499.61
eigval :     3502.99  3503.57  3534.26  3544.75  3551.21  3560.74
eigval :     3563.87  3569.32  3572.95
 reduced masses (amu)
   1: 12.59   2: 12.46   3: 12.72   4: 12.40   5: 12.46   6: 12.74   7: 11.11   8: 12.45
   9: 11.91  10: 12.03  11: 12.13  12: 12.13  13: 12.12  14: 12.33  15: 12.39  16: 12.46
  17: 12.35  18: 12.38  19: 13.40  20: 13.33  21: 13.55  22: 13.23  23: 11.78  24: 12.56
  25: 12.48  26: 11.48  27: 11.69  28: 13.35  29: 13.19  30: 12.50  31:  3.49  32:  4.37
  33:  9.68  34: 10.89  35:  4.14  36:  5.71  37:  3.02  38:  8.95  39:  3.74  40:  3.81
  41:  3.96  42:  5.23  43:  4.69  44:  2.36  45:  3.38  46:  8.57  47:  1.65  48:  7.68
  49:  8.36  50:  7.91  51:  8.53  52:  2.62  53:  8.39  54:  7.94  55:  2.67  56:  1.98
  57:  3.24  58:  6.38  59:  9.63  60: 10.62  61:  7.25  62:  8.50  63: 12.03  64:  3.49
  65:  8.76  66: 11.46  67: 11.99  68: 10.41  69:  4.95  70:  9.30  71:  2.90  72:  1.90
  73:  6.76  74:  8.55  75:  5.23  76:  5.07  77:  4.95  78:  4.89  79:  8.82  80:  9.05
  81:  7.75  82:  7.91  83:  8.57  84:  8.79  85:  8.03  86:  3.07  87:  4.82  88:  8.98
  89:  9.66  90:  9.56  91:  8.46  92:  6.45  93:  4.32  94:  8.59  95:  3.19  96:  4.77
  97:  6.37  98:  7.96  99:  6.68 100:  3.24 101:  4.87 102:  5.48 103:  5.74 104:  5.73
 105:  4.90 106:  3.24 107:  2.54 108:  2.54 109:  2.33 110:  1.95 111:  1.75 112:  3.26
 113:  1.66 114:  3.16 115:  2.93 116:  1.96 117:  2.49 118:  2.15 119:  2.42 120:  2.03
 121:  1.69 122:  8.08 123:  8.74 124:  6.84 125:  9.47 126: 12.60 127: 12.75 128: 12.69
 129: 12.85 130:  1.76 131:  1.67 132:  1.77 133:  1.73 134:  1.69 135:  1.66 136:  1.81
 137:  1.28 138:  1.91 139:  1.95 140:  1.81 141:  1.74 142:  1.83 143:  1.86 144:  1.78
 145:  1.72 146:  1.93 147:  1.58 148:  1.49 149:  1.45 150:  1.44 151:  1.44 152:  1.46
 153:  1.93 154:  2.07 155:  2.14 156:  2.18 157:  2.19 158:  2.18 159:  2.19
 IR intensities (km·mol⁻¹)
   1:  0.68   2:  1.34   3:  1.67   4:  2.04   5:  0.95   6:  2.22   7:  0.15   8:  0.92
   9:  0.42  10:  5.23  11:  4.29  12:  1.86  13:  0.37  14:  0.47  15:  6.67  16:  1.87
  17:  9.62  18:  1.50  19:  1.30  20:  9.51  21:  3.02  22:  1.16  23:  4.55  24: 10.19
  25: 11.92  26: 17.21  27:  3.29  28: 26.75  29: 22.87  30: 26.98  31:142.67  32: 50.52
  33:  5.46  34: 23.35  35: 41.68  36:  7.01  37: 62.32  38:  8.38  39: 95.22  40:453.89
  41:356.32  42: 18.10  43:  4.57  44:  0.96  45:331.07  46:  1.21  47:  5.47  48: 48.19
  49:  2.24  50:  3.51  51:  6.99  52:  7.44  53: 19.09  54: 22.31  55:  8.92  56: 15.46
  57: 40.62  58: 34.56  59: 37.61  60:  9.93  61: 99.36  62: 17.21  63: 44.57  64: 20.26
  65: 41.53  66: 42.21  67: 39.15  68: 23.90  69: 62.20  70:  4.15  71:586.23  72:261.36
  73:  1.86  74:  6.39  75:  1.55  76:  4.81  77: 13.73  78:  4.86  79:  0.10  80:  1.26
  81: 22.44  82: 33.42  83: 13.99  84: 12.26  85: 12.02  86:  0.94  87: 34.43  88:  2.02
  89:  1.87  90:  1.68  91:  2.16  92: 14.55  93: 22.22  94: 50.66  95: 16.10  96:  1.83
  97:  4.52  98: 20.95  99:  8.59 100:  5.30 101: 17.76 102:125.05 103: 93.54 104: 89.73
 105: 83.62 106:109.08 107: 46.03 108: 14.79 109:  4.19 110:  0.64 111:  0.22 112:  9.96
 113:  1.91 114: 14.96 115:  7.31 116:  5.94 117:  4.31 118: 31.52 119: 27.42 120: 49.27
 121: 13.28 122:427.86 123:456.99 124:700.74 125:494.55 126:****** 127:861.56 128:952.84
 129:512.81 130: 37.34 131:102.81 132:  8.63 133: 23.06 134: 38.46 135:  9.76 136:123.89
 137: 26.27 138:548.71 139:176.21 140: 99.90 141:130.81 142:  5.44 143: 85.71 144:196.27
 145:****** 146:186.00 147:175.13 148: 36.56 149: 21.80 150: 38.28 151: 18.83 152:  7.50
 153: 14.03 154: 24.57 155: 22.91 156: 19.17 157: 13.32 158: 11.20 159:  9.36
 Raman intensities (amu)
Molecule has no symmetry elements
It seems to be the C1 point group
   1:  0.00   2:  0.00   3:  0.00   4:  0.00   5:  0.00   6:  0.00   7:  0.00   8:  0.00
   9:  0.00  10:  0.00  11:  0.00  12:  0.00  13:  0.00  14:  0.00  15:  0.00  16:  0.00
  17:  0.00  18:  0.00  19:  0.00  20:  0.00  21:  0.00  22:  0.00  23:  0.00  24:  0.00
  25:  0.00  26:  0.00  27:  0.00  28:  0.00  29:  0.00  30:  0.00  31:  0.00  32:  0.00
  33:  0.00  34:  0.00  35:  0.00  36:  0.00  37:  0.00  38:  0.00  39:  0.00  40:  0.00
  41:  0.00  42:  0.00  43:  0.00  44:  0.00  45:  0.00  46:  0.00  47:  0.00  48:  0.00
  49:  0.00  50:  0.00  51:  0.00  52:  0.00  53:  0.00  54:  0.00  55:  0.00  56:  0.00
  57:  0.00  58:  0.00  59:  0.00  60:  0.00  61:  0.00  62:  0.00  63:  0.00  64:  0.00
  65:  0.00  66:  0.00  67:  0.00  68:  0.00  69:  0.00  70:  0.00  71:  0.00  72:  0.00
  73:  0.00  74:  0.00  75:  0.00  76:  0.00  77:  0.00  78:  0.00  79:  0.00  80:  0.00
  81:  0.00  82:  0.00  83:  0.00  84:  0.00  85:  0.00  86:  0.00  87:  0.00  88:  0.00
  89:  0.00  90:  0.00  91:  0.00  92:  0.00  93:  0.00  94:  0.00  95:  0.00  96:  0.00
  97:  0.00  98:  0.00  99:  0.00 100:  0.00 101:  0.00 102:  0.00 103:  0.00 104:  0.00
 105:  0.00 106:  0.00 107:  0.00 108:  0.00 109:  0.00 110:  0.00 111:  0.00 112:  0.00
 113:  0.00 114:  0.00 115:  0.00 116:  0.00 117:  0.00 118:  0.00 119:  0.00 120:  0.00
 121:  0.00 122:  0.00 123:  0.00 124:  0.00 125:  0.00 126:  0.00 127:  0.00 128:  0.00
 129:  0.00 130:  0.00 131:  0.00 132:  0.00 133:  0.00 134:  0.00 135:  0.00 136:  0.00
 137:  0.00 138:  0.00 139:  0.00 140:  0.00 141:  0.00 142:  0.00 143:  0.00 144:  0.00
 145:  0.00 146:  0.00 147:  0.00 148:  0.00 149:  0.00 150:  0.00 151:  0.00 152:  0.00
 153:  0.00 154:  0.00 155:  0.00 156:  0.00 157:  0.00 158:  0.00 159:  0.00
 output can be read by thermo (or use thermo option).
 writing <g98.out> molden fake output.
 recommended (thermochemical) frequency scaling factor: 1.0
           -------------------------------------------------
          |             Thermodynamic Functions             |
           -------------------------------------------------

c1  symmetry found (for desy threshold:  0.10E+00) used in thermo
 inverting freq            1   4.8942102723286309     

          ...................................................
          :                      SETUP                      :
          :.................................................:
          :  # frequencies                         153      :
          :  # imaginary freq.                       0      :
          :  linear?                             false      :
          :  only rotor calc.                    false      :
          :  symmetry                               c1      :
          :  rotational number                       1      :
          :  scaling factor                  1.0000000      :
          :  rotor cutoff                   50.0000000 cm⁻¹ :
          :  imag. cutoff                  -20.0000000 cm⁻¹ :
          :.................................................:

    mode    ω/cm⁻¹     T·S(HO)/kcal·mol⁻¹    T·S(FR)/kcal·mol⁻¹   T·S(vib)
   ------------------------------------------------------------------------
       1      4.89    -2.81180 (  0.01%)    -1.74478 ( 99.99%)    -1.74488
       2     10.68    -2.34947 (  0.21%)    -1.51372 ( 99.79%)    -1.51545
       3     15.34    -2.13515 (  0.88%)    -1.40655 ( 99.12%)    -1.41295
       4     19.47    -1.99392 (  2.25%)    -1.33591 ( 97.75%)    -1.35070
       5     28.33    -1.77199 (  9.34%)    -1.22484 ( 90.66%)    -1.27594
       6     29.22    -1.75362 ( 10.45%)    -1.21565 ( 89.55%)    -1.27184
       7     32.10    -1.69799 ( 14.52%)    -1.18778 ( 85.48%)    -1.26189
       8     39.33    -1.57792 ( 27.69%)    -1.12760 ( 72.31%)    -1.25231
       9     45.01    -1.49829 ( 39.64%)    -1.08766 ( 60.36%)    -1.25045
      10     47.04    -1.47223 ( 43.94%)    -1.07458 ( 56.06%)    -1.24930
      11     55.94    -1.37017 ( 61.04%)    -1.02328 ( 38.96%)    -1.23502
      12     61.62    -1.31320 ( 69.76%)    -0.99461 ( 30.24%)    -1.21687
      13     68.68    -1.24947 ( 78.07%)    -0.96248 ( 21.93%)    -1.18654
      14     77.94    -1.17533 ( 85.52%)    -0.92503 ( 14.48%)    -1.13908
      15     81.29    -1.15071 ( 87.48%)    -0.91256 ( 12.52%)    -1.12089
      16     83.37    -1.13591 ( 88.55%)    -0.90507 ( 11.45%)    -1.10947
      17     92.35    -1.07623 ( 92.09%)    -0.87478 (  7.91%)    -1.06029
      18    101.41    -1.02175 ( 94.42%)    -0.84704 (  5.58%)    -1.01200
      19    106.27    -0.99459 ( 95.33%)    -0.83317 (  4.67%)    -0.98705
      20    115.98    -0.94402 ( 96.66%)    -0.80728 (  3.34%)    -0.93945
      21    125.07    -0.90054 ( 97.51%)    -0.78492 (  2.49%)    -0.89766
      22    148.12    -0.80389 ( 98.72%)    -0.73483 (  1.28%)    -0.80301
      23    160.73    -0.75766 ( 99.07%)    -0.71062 (  0.93%)    -0.75722
      24    174.34    -0.71202 ( 99.33%)    -0.68654 (  0.67%)    -0.71185
      25    183.31    -0.68410 ( 99.45%)    -0.67169 (  0.55%)    -0.68403
      26    189.15    -0.66671 ( 99.51%)    -0.66239 (  0.49%)    -0.66669
      27    192.29    -0.65761 ( 99.54%)    -0.65751 (  0.46%)    -0.65761
      28    256.19    -0.50315 ( 99.86%)    -0.57251 (  0.14%)    -0.50325
      29    261.92    -0.49163 ( 99.87%)    -0.56596 (  0.13%)    -0.49173
      30    278.61    -0.45980 ( 99.90%)    -0.54766 (  0.10%)    -0.45989
   ------------------------------------------------------------------------

   temp. (K)  partition function   enthalpy   heat capacity  entropy
                                   cal/mol     cal/K/mol   cal/K/mol   J/K/mol
 298.15  VIB  0.628E+19            19791.971    103.226    132.595
         ROT  0.185E+08              888.752      2.981     36.230
         INT  0.116E+27            20680.723    106.207    168.825
         TR   0.618E+28             1481.254      4.968     43.384
         TOT                       22161.9771   111.1754   212.2095   887.8847

       T/K    H(0)-H(T)+PV         H(T)/Eh          T*S/Eh         G(T)/Eh
   ------------------------------------------------------------------------
    298.15    0.353174E-01    0.474046E+00    0.100828E+00    0.373218E+00
   ------------------------------------------------------------------------

         :::::::::::::::::::::::::::::::::::::::::::::::::::::
         ::                  THERMODYNAMIC                  ::
         :::::::::::::::::::::::::::::::::::::::::::::::::::::
         :: total free energy         -80.558291562784 Eh   ::
         ::.................................................::
         :: total energy              -80.931509946249 Eh   ::
         :: zero point energy           0.438728619053 Eh   ::
         :: G(RRHO) w/o ZPVE           -0.065510235588 Eh   ::
         :: G(RRHO) contrib.            0.373218383464 Eh   ::
         :::::::::::::::::::::::::::::::::::::::::::::::::::::

           -------------------------------------------------
          | TOTAL ENERGY              -80.931509946249 Eh   |
          | TOTAL ENTHALPY            -80.457463968711 Eh   |
          | TOTAL FREE ENERGY         -80.558291562784 Eh   |
          | GRADIENT NORM               0.000039651220 Eh/α |
          | HOMO-LUMO GAP               5.564089483261 eV   |
           -------------------------------------------------

------------------------------------------------------------------------
 * finished run on 2024/01/10 at 18:28:42.930     
------------------------------------------------------------------------
 total:
 * wall-time:     0 d,  0 h,  0 min, 14.051 sec
 *  cpu-time:     0 d,  0 h,  0 min, 13.975 sec
 * ratio c/w:     0.995 speedup
 SCF:
 * wall-time:     0 d,  0 h,  0 min,  0.100 sec
 *  cpu-time:     0 d,  0 h,  0 min,  0.057 sec
 * ratio c/w:     0.569 speedup
 analytical hessian:
 * wall-time:     0 d,  0 h,  0 min, 13.925 sec
 *  cpu-time:     0 d,  0 h,  0 min, 13.892 sec
 * ratio c/w:     0.998 speedup

