 Entering Gaussian System
 *********************************************
 Gaussian 98:
 frequency output generated by the xtb code
 *********************************************
                         Standard orientation:
 --------------------------------------------------------------------
  Center     Atomic     Atomic              Coordinates (Angstroms)
  Number     Number      Type              X           Y           Z
 --------------------------------------------------------------------
    1          8             0       -0.931666   -0.120134   -3.030013
    2          6             0        0.292883    0.085836   -2.382179
    3          1             0        1.073816   -0.212972   -3.084116
    4          1             0        0.439570    1.150567   -2.159742
    5          6             0        0.417971   -0.648978   -1.042878
    6          1             0       -0.450314   -0.399467   -0.428867
    7          1             0        1.325438   -0.304728   -0.544346
    8          7             0        0.498925   -2.134238   -1.112226
    9          6             0        0.748286   -2.622296    0.255358
   10          1             0        1.690305   -2.208095    0.610462
   11          1             0        0.806139   -3.708923    0.256517
   12          1             0       -0.066480   -2.304492    0.902548
   13          6             0        1.616061   -2.562813   -1.966492
   14          1             0        1.422432   -2.308477   -3.005031
   15          1             0        1.742559   -3.641243   -1.891825
   16          1             0        2.524861   -2.070477   -1.620642
   17          6             0       -0.769715   -2.690248   -1.605527
   18          1             0       -1.010857   -2.256547   -2.574576
   19          1             0       -1.560075   -2.437301   -0.901319
   20          1             0       -0.695896   -3.772527   -1.692465
   21          1             0       -1.617029    0.322073   -2.495131
   22          6             0        4.049349    0.205931    0.043828
   23          8             0        3.338473   -0.788004   -0.051575
   24          7             0        3.544209    1.431405    0.300598
   25          1             0        2.563520    1.516538    0.556585
   26          1             0        4.148181    2.220999    0.437233
   27          7             0        5.395662    0.135563   -0.113167
   28          1             0        5.976390    0.953207   -0.138814
   29          1             0        5.799249   -0.741874   -0.387527
   30          6             0       -2.037213    2.559361   -0.977435
   31          8             0       -2.285274    1.366753   -1.169361
   32          7             0       -2.824927    3.526368   -1.508409
   33          1             0       -3.543445    3.252099   -2.154934
   34          1             0       -2.579511    4.498417   -1.461971
   35          7             0       -0.996729    2.968721   -0.235556
   36          1             0       -0.841815    3.944054   -0.056901
   37          1             0       -0.403086    2.297469    0.245812
   38          6             0       -3.201614   -1.228864    1.172852
   39          8             0       -1.974137   -1.348420    1.173297
   40          7             0       -3.973810   -1.936666    2.034135
   41          1             0       -3.538124   -2.630466    2.614721
   42          1             0       -4.975803   -1.925213    1.981609
   43          7             0       -3.836527   -0.409797    0.322309
   44          1             0       -4.828998   -0.270349    0.372228
   45          1             0       -3.285693    0.216687   -0.261565
   46          6             0        0.776992    0.984944    2.409487
   47          8             0        0.864769    1.451849    1.272229
   48          7             0       -0.202139    0.143780    2.777394
   49          1             0       -0.835788   -0.251418    2.087667
   50          1             0       -0.202643   -0.269591    3.692151
   51          7             0        1.682062    1.306814    3.367397
   52          1             0        1.585001    0.998006    4.317042
   53          1             0        2.372710    2.007124    3.166574
 --------------------------------------------------------------------
     1 basis functions        1 primitive gaussians
     1 alpha electrons        1 beta electrons

 Harmonic frequencies (cm**-1), IR intensities (km*mol⁻¹),
 Raman scattering activities (A**4/amu), Raman depolarization ratios,
 reduced masses (AMU), force constants (mDyne/A) and normal coordinates:
                      1                      2                      3
                        a                      a                      a 
 Frequencies --    16.2107                19.9343                24.8930
 Red. masses --    12.3499                12.1720                12.1350
 Frc consts  --     0.0000                 0.0000                 0.0000
 IR Inten    --     0.6544                 0.1831                 0.6081
 Raman Activ --     0.0000                 0.0000                 0.0000
 Depolar     --     0.0000                 0.0000                 0.0000
 Atom AN      X      Y      Z        X      Y      Z        X      Y      Z
   1   8     0.20   0.16  -0.05     0.20  -0.01  -0.09     0.02  -0.06   0.03
   2   6     0.12   0.10   0.06     0.11   0.01   0.02     0.04  -0.06  -0.01
   3   1     0.05   0.04   0.03     0.05   0.00   0.03     0.00  -0.03  -0.00
   4   1     0.03   0.03   0.04     0.03   0.00   0.01     0.02  -0.01  -0.02
   5   6     0.02   0.02   0.03     0.01   0.03   0.04     0.04   0.00   0.02
   6   1    -0.00   0.01  -0.00    -0.01   0.01  -0.01     0.02   0.01   0.00
   7   1     0.00  -0.01   0.03    -0.01   0.01   0.03     0.02   0.00  -0.00
   8   7    -0.03   0.03  -0.05    -0.01   0.03   0.07     0.01  -0.00   0.10
   9   6    -0.09  -0.06  -0.06    -0.07   0.04   0.09    -0.00   0.07   0.12
  10   1    -0.02  -0.03  -0.00    -0.02   0.01   0.03     0.00   0.02   0.03
  11   1    -0.04  -0.02  -0.03    -0.02   0.01   0.03    -0.01   0.02   0.05
  12   1    -0.03  -0.01  -0.02    -0.03   0.02   0.01     0.00   0.03   0.03
  13   6    -0.02   0.03  -0.03     0.02  -0.01   0.12     0.01  -0.07   0.12
  14   1     0.01   0.03  -0.01     0.02  -0.01   0.03     0.01  -0.03   0.03
  15   1    -0.02   0.01  -0.03     0.00  -0.00   0.04    -0.00  -0.02   0.05
  16   1    -0.00  -0.00   0.01     0.00  -0.00   0.04     0.01  -0.02   0.03
  17   6    -0.03   0.09  -0.12    -0.00   0.04   0.03     0.01  -0.00   0.12
  18   1     0.01   0.04  -0.03     0.01   0.01   0.00     0.01  -0.01   0.03
  19   1    -0.01   0.03  -0.04    -0.01   0.02  -0.00     0.00   0.01   0.03
  20   1    -0.02   0.03  -0.05    -0.00   0.01   0.02    -0.00  -0.00   0.05
  21   1     0.04   0.03  -0.02     0.04  -0.00  -0.04     0.01  -0.00   0.01
  22   6     0.03  -0.15   0.10    -0.06   0.11  -0.04     0.08  -0.02  -0.13
  23   8    -0.03  -0.13   0.16    -0.03   0.08   0.12     0.09  -0.03  -0.08
  24   7     0.09  -0.10  -0.04    -0.10   0.11  -0.09     0.11  -0.06   0.07
  25   1     0.02  -0.00  -0.03    -0.02   0.02  -0.01     0.03  -0.02   0.03
  26   1     0.04  -0.03  -0.02    -0.03   0.04  -0.07     0.03  -0.01  -0.03
  27   7     0.04  -0.27   0.22    -0.08   0.17  -0.18     0.05   0.01  -0.44
  28   1     0.02  -0.08   0.05    -0.03   0.05  -0.07     0.02   0.00  -0.09
  29   1    -0.00  -0.09   0.09    -0.02   0.04  -0.03     0.01   0.00  -0.12
  30   6    -0.16  -0.06   0.06    -0.03  -0.08  -0.01     0.03   0.01   0.12
  31   8    -0.04  -0.08  -0.03     0.05  -0.09  -0.15     0.10   0.01   0.06
  32   7    -0.34  -0.11   0.22    -0.01  -0.08  -0.02    -0.11   0.01   0.35
  33   1    -0.09  -0.04   0.06     0.02  -0.02  -0.03    -0.04   0.01   0.10
  34   1    -0.12  -0.02   0.07    -0.02  -0.02   0.03    -0.04   0.00   0.10
  35   7    -0.17  -0.00   0.03    -0.13  -0.10   0.14     0.12   0.01   0.02
  36   1    -0.08   0.00   0.03    -0.05  -0.03   0.06     0.01   0.00   0.04
  37   1    -0.02   0.01  -0.01    -0.03  -0.03   0.03     0.04   0.00  -0.01
  38   6     0.03  -0.01  -0.00    -0.07   0.11  -0.03    -0.07  -0.04  -0.13
  39   8     0.04   0.08   0.03    -0.09   0.11   0.02    -0.07   0.09   0.03
  40   7     0.07   0.07   0.10    -0.10   0.33   0.11    -0.12  -0.09  -0.23
  41   1     0.03   0.05   0.05    -0.03   0.11   0.06    -0.04  -0.00  -0.04
  42   1     0.02  -0.01   0.02    -0.03   0.08   0.01    -0.03  -0.05  -0.10
  43   7    -0.02  -0.20  -0.16    -0.06  -0.09  -0.25    -0.04  -0.15  -0.27
  44   1    -0.00  -0.06  -0.04    -0.01  -0.00  -0.06    -0.02  -0.06  -0.10
  45   1    -0.01  -0.05  -0.04    -0.01  -0.03  -0.07    -0.01  -0.02  -0.05
  46   6     0.07   0.13  -0.11     0.10  -0.16   0.03    -0.05   0.08   0.03
  47   8     0.06   0.12  -0.14    -0.02  -0.05   0.08     0.09  -0.02   0.00
  48   7     0.08   0.15  -0.07     0.10  -0.16   0.06    -0.21   0.26   0.03
  49   1     0.02   0.03  -0.01    -0.00  -0.01   0.03    -0.04   0.06   0.00
  50   1     0.03   0.04  -0.02     0.05  -0.07   0.00    -0.08   0.09   0.02
  51   7     0.10   0.17  -0.14     0.26  -0.35  -0.06    -0.10   0.06   0.08
  52   1     0.03   0.05  -0.04     0.10  -0.13  -0.02    -0.05   0.03   0.02
  53   1     0.02   0.04  -0.05     0.08  -0.11  -0.02     0.01  -0.02   0.02
                      4                      5                      6
                        a                      a                      a 
 Frequencies --    26.0772                31.7413                39.9568
 Red. masses --    12.3536                11.9036                12.2918
 Frc consts  --     0.0000                 0.0000                 0.0000
 IR Inten    --     4.0980                 1.4496                 3.1289
 Raman Activ --     0.0000                 0.0000                 0.0000
 Depolar     --     0.0000                 0.0000                 0.0000
 Atom AN      X      Y      Z        X      Y      Z        X      Y      Z
   1   8    -0.08  -0.05   0.17     0.29   0.18   0.10     0.04  -0.09   0.03
   2   6    -0.05  -0.06   0.12     0.17   0.08   0.26     0.04  -0.09   0.00
   3   1    -0.02  -0.02   0.03     0.08   0.05   0.09     0.01  -0.02  -0.00
   4   1    -0.01  -0.02   0.03     0.04   0.02   0.12     0.01  -0.03   0.00
   5   6    -0.02  -0.06   0.11     0.01  -0.08   0.18     0.06  -0.11  -0.01
   6   1    -0.01  -0.03   0.03    -0.01  -0.04   0.04     0.02  -0.04  -0.00
   7   1    -0.01  -0.01   0.04    -0.01  -0.05   0.09     0.02  -0.03   0.00
   8   7     0.03  -0.06   0.11    -0.02  -0.08   0.01     0.10  -0.11  -0.03
   9   6    -0.01  -0.06   0.11    -0.08  -0.24  -0.03     0.08  -0.12  -0.03
  10   1    -0.01  -0.01   0.05    -0.02  -0.09   0.01     0.02  -0.03  -0.00
  11   1     0.01  -0.02   0.03    -0.04  -0.07  -0.04     0.03  -0.03  -0.01
  12   1    -0.02  -0.03   0.02    -0.02  -0.08  -0.01     0.02  -0.04  -0.01
  13   6     0.08  -0.01   0.16     0.00  -0.01   0.00     0.12  -0.07  -0.01
  14   1     0.04  -0.00   0.04     0.01   0.03   0.01     0.04  -0.02  -0.00
  15   1     0.03  -0.00   0.04    -0.00  -0.00  -0.03     0.04  -0.02  -0.01
  16   1     0.01   0.00   0.06    -0.00  -0.01   0.02     0.03  -0.02   0.00
  17   6     0.07  -0.10   0.05    -0.01   0.02  -0.10     0.12  -0.12  -0.05
  18   1     0.03  -0.03   0.01     0.01   0.04  -0.02     0.04  -0.03  -0.01
  19   1     0.01  -0.04   0.01    -0.01  -0.01  -0.03     0.03  -0.04  -0.02
  20   1     0.03  -0.03   0.01    -0.01   0.01  -0.07     0.04  -0.03  -0.02
  21   1    -0.01   0.00   0.04     0.05   0.03   0.01     0.01  -0.01   0.00
  22   6    -0.02   0.04   0.05    -0.10  -0.04  -0.11     0.00   0.02  -0.01
  23   8    -0.04   0.04   0.25    -0.05  -0.12   0.15     0.07  -0.02   0.03
  24   7    -0.01   0.10  -0.18    -0.15  -0.05  -0.20    -0.07   0.01  -0.05
  25   1    -0.00   0.04  -0.05    -0.03  -0.02  -0.02    -0.02  -0.01  -0.01
  26   1    -0.00   0.03  -0.09    -0.05   0.01  -0.11    -0.03   0.01  -0.01
  27   7    -0.02  -0.01   0.08    -0.13   0.04  -0.38     0.01   0.10  -0.01
  28   1    -0.00  -0.01  -0.02    -0.05   0.02  -0.12    -0.01   0.04  -0.01
  29   1    -0.01  -0.02   0.07    -0.03   0.00  -0.06     0.02   0.03   0.00
  30   6    -0.04   0.13   0.03     0.01   0.05  -0.03    -0.04   0.05   0.05
  31   8    -0.04   0.15   0.07     0.02   0.05  -0.02     0.00   0.07  -0.06
  32   7    -0.10   0.13   0.10     0.10   0.04  -0.17    -0.24   0.08   0.38
  33   1    -0.04   0.03   0.04     0.04   0.01  -0.06    -0.07   0.03   0.11
  34   1    -0.03   0.03   0.02     0.02   0.01  -0.04    -0.06   0.02   0.10
  35   7     0.01   0.16  -0.05    -0.07   0.06   0.08     0.12   0.02  -0.14
  36   1    -0.00   0.04  -0.01    -0.01   0.02   0.01     0.00   0.00   0.02
  37   1     0.01   0.05  -0.02    -0.02   0.02   0.03     0.03  -0.00  -0.05
  38   6    -0.05  -0.04  -0.09     0.05  -0.04   0.01    -0.00   0.14  -0.01
  39   8    -0.06  -0.03  -0.07     0.06  -0.09   0.03    -0.03  -0.07  -0.23
  40   7    -0.08  -0.25  -0.30     0.02  -0.09  -0.06     0.03   0.36   0.20
  41   1    -0.03  -0.08  -0.10    -0.00  -0.03  -0.02     0.00   0.07   0.02
  42   1    -0.02  -0.05  -0.07     0.01  -0.01  -0.01     0.01   0.12   0.08
  43   7    -0.02   0.16   0.08     0.10   0.05   0.07    -0.01   0.20   0.05
  44   1    -0.01   0.02   0.00     0.03   0.01   0.01     0.00   0.10   0.06
  45   1    -0.00   0.05   0.03     0.03   0.01   0.02    -0.00   0.03  -0.01
  46   6     0.10  -0.03  -0.18    -0.05   0.06   0.05    -0.10  -0.06  -0.03
  47   8     0.03   0.11  -0.15    -0.08   0.05   0.05    -0.06  -0.09  -0.04
  48   7     0.10  -0.03  -0.21     0.04  -0.05   0.04    -0.00  -0.22  -0.11
  49   1     0.01   0.02  -0.05     0.02  -0.03   0.01     0.01  -0.06  -0.04
  50   1     0.04  -0.04  -0.07     0.01  -0.00   0.02    -0.02  -0.04  -0.02
  51   7     0.21  -0.19  -0.24    -0.14   0.22   0.09    -0.25   0.10   0.05
  52   1     0.08  -0.09  -0.07    -0.03   0.05   0.02    -0.07   0.02   0.01
  53   1     0.06  -0.06  -0.06    -0.05   0.07   0.02    -0.08   0.04   0.02
                      7                      8                      9
                        a                      a                      a 
 Frequencies --    41.8646                48.4349                53.3480
 Red. masses --    12.6240                13.0002                12.6757
 Frc consts  --     0.0000                 0.0000                 0.0000
 IR Inten    --     0.1377                 3.1049                 3.7306
 Raman Activ --     0.0000                 0.0000                 0.0000
 Depolar     --     0.0000                 0.0000                 0.0000
 Atom AN      X      Y      Z        X      Y      Z        X      Y      Z
   1   8    -0.19  -0.13   0.05    -0.10  -0.13   0.07    -0.12   0.05   0.09
   2   6    -0.13  -0.10  -0.03    -0.09  -0.05   0.04    -0.11   0.06   0.10
   3   1    -0.05  -0.03  -0.02    -0.02   0.00   0.01    -0.03   0.03   0.03
   4   1    -0.03  -0.03  -0.02    -0.04  -0.01   0.02    -0.04   0.02   0.04
   5   6    -0.05  -0.08  -0.02    -0.02  -0.06   0.03    -0.10   0.00   0.07
   6   1    -0.01  -0.03   0.01    -0.01  -0.04   0.02    -0.04  -0.02   0.02
   7   1    -0.01  -0.02  -0.02    -0.01  -0.00   0.01    -0.04   0.01   0.03
   8   7    -0.03  -0.09  -0.01     0.06  -0.06   0.01    -0.02   0.01  -0.01
   9   6     0.01  -0.06  -0.01     0.10  -0.06   0.00    -0.05  -0.05  -0.03
  10   1     0.01  -0.01  -0.01     0.03  -0.01  -0.00    -0.02  -0.01   0.01
  11   1     0.00  -0.02   0.00     0.04  -0.02  -0.00    -0.00  -0.01  -0.02
  12   1     0.01  -0.01   0.00     0.03  -0.02   0.01    -0.02  -0.03  -0.01
  13   6    -0.04  -0.07  -0.02     0.07   0.01  -0.01     0.04   0.11   0.01
  14   1    -0.02  -0.03  -0.01     0.01   0.01  -0.00     0.02   0.05   0.01
  15   1    -0.00  -0.02  -0.00     0.04   0.01  -0.01     0.03   0.03  -0.01
  16   1    -0.01  -0.01  -0.01     0.01   0.02  -0.00    -0.00   0.04   0.02
  17   6    -0.02  -0.11   0.02     0.08  -0.12   0.02     0.03  -0.03  -0.09
  18   1    -0.02  -0.03   0.01     0.01  -0.03   0.01     0.02   0.00  -0.02
  19   1    -0.01  -0.04   0.01     0.02  -0.05   0.01    -0.00  -0.03  -0.03
  20   1    -0.00  -0.03   0.01     0.04  -0.03   0.00     0.03  -0.01  -0.04
  21   1    -0.03  -0.00   0.00    -0.03  -0.01   0.00    -0.03   0.01   0.02
  22   6    -0.08   0.01  -0.03     0.06  -0.06   0.06    -0.06   0.01   0.09
  23   8    -0.04  -0.02  -0.05     0.01  -0.02  -0.01    -0.15   0.06   0.18
  24   7    -0.17   0.04  -0.29     0.16  -0.12   0.46     0.05   0.01   0.31
  25   1    -0.04  -0.00  -0.05     0.03  -0.02   0.07     0.01   0.02   0.07
  26   1    -0.05  -0.00  -0.01     0.04  -0.02   0.05     0.02   0.01   0.01
  27   7    -0.05   0.03   0.26     0.02  -0.07  -0.24    -0.11  -0.04  -0.21
  28   1    -0.03   0.02   0.00     0.03  -0.03   0.04    -0.00  -0.03  -0.00
  29   1    -0.00   0.01   0.06    -0.00  -0.02  -0.07    -0.05  -0.02  -0.04
  30   6     0.02   0.13   0.05    -0.17   0.09  -0.02     0.03   0.03  -0.12
  31   8    -0.01   0.17  -0.08    -0.18   0.13  -0.19    -0.17   0.06   0.03
  32   7     0.09   0.21   0.09    -0.01   0.16  -0.14     0.02   0.10   0.00
  33   1     0.03   0.08   0.01     0.02   0.06  -0.07    -0.03   0.04   0.04
  34   1     0.03   0.05   0.05    -0.02   0.04   0.02     0.06   0.02  -0.05
  35   7    -0.02   0.03   0.16    -0.38   0.00   0.31     0.31  -0.03  -0.47
  36   1     0.01   0.00   0.06    -0.08  -0.00   0.08     0.09  -0.01  -0.12
  37   1    -0.01  -0.01   0.03    -0.09  -0.01   0.05     0.05  -0.01  -0.09
  38   6     0.12  -0.01  -0.11     0.08   0.07  -0.05     0.03  -0.06  -0.01
  39   8     0.14   0.10   0.06     0.09   0.06  -0.11     0.05   0.03  -0.02
  40   7     0.08   0.06  -0.11     0.12   0.09  -0.02     0.11   0.03   0.13
  41   1     0.02   0.05   0.01     0.04   0.02  -0.01     0.04   0.03   0.05
  42   1     0.02  -0.01  -0.07     0.03   0.03   0.01     0.03  -0.03   0.03
  43   7     0.16  -0.23  -0.37     0.07   0.08  -0.02    -0.05  -0.29  -0.17
  44   1     0.04  -0.07  -0.12     0.02   0.02  -0.00    -0.01  -0.07  -0.02
  45   1     0.04  -0.04  -0.07     0.01   0.02  -0.02    -0.03  -0.05  -0.04
  46   6     0.05   0.03   0.10     0.00   0.01  -0.04     0.06  -0.01   0.03
  47   8    -0.03  -0.04   0.08    -0.04   0.01  -0.06    -0.00   0.04   0.05
  48   7     0.16  -0.06   0.18    -0.00   0.03  -0.01     0.12  -0.08   0.03
  49   1     0.04  -0.03   0.06     0.00   0.00   0.00     0.02  -0.01   0.01
  50   1     0.05   0.00   0.06     0.01   0.01  -0.00     0.04  -0.03   0.00
  51   7     0.04   0.20   0.07     0.04   0.01  -0.08     0.08  -0.01   0.02
  52   1     0.02   0.08   0.03     0.02  -0.00  -0.02     0.04  -0.02  -0.00
  53   1    -0.02   0.08   0.01     0.02  -0.01  -0.03     0.02  -0.00   0.00
                     10                     11                     12
                        a                      a                      a 
 Frequencies --    60.2907                61.6619                62.6570
 Red. masses --    13.0788                12.6691                12.5543
 Frc consts  --     0.0000                 0.0000                 0.0000
 IR Inten    --     0.5606                 1.0286                 3.2569
 Raman Activ --     0.0000                 0.0000                 0.0000
 Depolar     --     0.0000                 0.0000                 0.0000
 Atom AN      X      Y      Z        X      Y      Z        X      Y      Z
   1   8     0.06   0.00  -0.04    -0.07  -0.13  -0.24     0.20  -0.02  -0.09
   2   6     0.04   0.01  -0.00    -0.06  -0.08  -0.23     0.11   0.00   0.03
   3   1     0.02   0.01   0.00    -0.02  -0.04  -0.06     0.05   0.00   0.03
   4   1     0.00   0.00   0.00    -0.01  -0.02  -0.09     0.02   0.00   0.01
   5   6     0.02  -0.01  -0.01    -0.07   0.02  -0.17     0.01   0.01   0.04
   6   1     0.01  -0.01  -0.00    -0.03   0.01  -0.07     0.01   0.02   0.01
   7   1     0.00  -0.00   0.00    -0.03   0.03  -0.04     0.01  -0.01   0.01
   8   7     0.03  -0.01  -0.03    -0.01   0.02  -0.07    -0.09   0.00   0.06
   9   6    -0.00  -0.02  -0.03    -0.13   0.11  -0.01    -0.01   0.00   0.04
  10   1     0.00  -0.01  -0.01    -0.06   0.05   0.02     0.01  -0.01  -0.01
  11   1    -0.01  -0.01  -0.01    -0.02   0.03   0.02    -0.02   0.00   0.01
  12   1     0.00   0.01  -0.01    -0.06   0.03  -0.03     0.01   0.02   0.03
  13   6     0.05   0.00  -0.01     0.10   0.00   0.08    -0.18  -0.08  -0.03
  14   1     0.02   0.01  -0.00     0.06  -0.01   0.01    -0.08  -0.03  -0.01
  15   1     0.01   0.00  -0.01     0.03   0.00   0.04    -0.06  -0.02   0.00
  16   1     0.01  -0.00   0.01     0.01   0.01   0.05    -0.04  -0.03  -0.04
  17   6     0.04  -0.00  -0.07     0.07  -0.06  -0.17    -0.16   0.08   0.15
  18   1     0.02   0.00  -0.02     0.04  -0.04  -0.06    -0.06   0.03   0.05
  19   1     0.01  -0.00  -0.03    -0.01  -0.01  -0.08    -0.03   0.04   0.06
  20   1     0.01  -0.00  -0.02     0.03  -0.02  -0.03    -0.07   0.02   0.04
  21   1     0.01   0.00  -0.02    -0.02  -0.03  -0.06     0.03   0.00  -0.05
  22   6    -0.05  -0.03   0.01    -0.13  -0.01   0.07     0.01   0.03   0.00
  23   8     0.03  -0.10   0.09    -0.24   0.04   0.28     0.03   0.04  -0.22
  24   7    -0.15  -0.04  -0.14    -0.01   0.04   0.05    -0.01  -0.03   0.25
  25   1    -0.04  -0.03  -0.02     0.00   0.04   0.03    -0.01  -0.01   0.04
  26   1    -0.05  -0.00  -0.04     0.01   0.01  -0.04    -0.01  -0.01   0.09
  27   7    -0.04   0.05   0.05    -0.18  -0.13  -0.16     0.02   0.08   0.04
  28   1    -0.03   0.03  -0.02    -0.02  -0.05  -0.04     0.00   0.02   0.06
  29   1     0.01   0.02   0.03    -0.07  -0.06  -0.01     0.01   0.04  -0.03
  30   6    -0.07  -0.02  -0.08     0.05  -0.09   0.05    -0.07  -0.01  -0.11
  31   8    -0.21   0.02  -0.22     0.16  -0.12  -0.04    -0.06   0.01  -0.26
  32   7    -0.05   0.11   0.11    -0.03  -0.13   0.12    -0.19   0.03   0.13
  33   1    -0.03   0.07   0.03     0.01  -0.04   0.02    -0.06   0.02   0.04
  34   1     0.02   0.02   0.04    -0.03  -0.03   0.05    -0.05   0.01   0.04
  35   7     0.05  -0.19  -0.16     0.00  -0.07   0.10     0.03  -0.07  -0.22
  36   1     0.02  -0.06   0.00    -0.02  -0.02   0.05    -0.02  -0.02  -0.01
  37   1    -0.01  -0.07  -0.04     0.01  -0.01   0.02    -0.00  -0.03  -0.06
  38   6     0.12   0.07   0.03     0.05   0.07  -0.01     0.01   0.03   0.01
  39   8     0.15   0.20  -0.02     0.06   0.12  -0.04     0.02   0.06   0.15
  40   7     0.22  -0.11  -0.04     0.08  -0.10  -0.14    -0.09  -0.17  -0.25
  41   1     0.08  -0.02  -0.02     0.03  -0.03  -0.05    -0.04  -0.04  -0.05
  42   1     0.06  -0.03   0.02     0.02  -0.01  -0.02    -0.02  -0.02  -0.07
  43   7     0.03   0.14   0.17     0.03   0.22   0.14     0.10   0.18   0.09
  44   1     0.00  -0.01   0.03     0.00   0.03   0.02     0.02   0.01  -0.03
  45   1    -0.01   0.03   0.02     0.01   0.05   0.03     0.04   0.04   0.02
  46   6    -0.06  -0.03   0.09     0.08   0.07   0.10     0.07  -0.04   0.04
  47   8    -0.05  -0.17   0.05     0.08   0.14   0.14    -0.10  -0.06   0.02
  48   7    -0.33   0.34   0.27     0.17  -0.05   0.03     0.28  -0.24   0.13
  49   1    -0.07   0.06   0.07     0.05  -0.00   0.00     0.05  -0.06   0.06
  50   1    -0.06   0.08   0.07     0.04  -0.02   0.01     0.10  -0.04   0.04
  51   7     0.14  -0.24  -0.03     0.01   0.15   0.16     0.09   0.15  -0.03
  52   1     0.02  -0.01   0.01     0.02   0.01   0.03     0.06   0.04  -0.01
  53   1     0.07  -0.10  -0.03    -0.00   0.05   0.05    -0.01   0.07  -0.03
                     13                     14                     15
                        a                      a                      a 
 Frequencies --    68.3619                76.0070                80.4356
 Red. masses --    12.6568                12.9622                12.1687
 Frc consts  --     0.0000                 0.0000                 0.0000
 IR Inten    --     1.6527                10.8745                 1.5597
 Raman Activ --     0.0000                 0.0000                 0.0000
 Depolar     --     0.0000                 0.0000                 0.0000
 Atom AN      X      Y      Z        X      Y      Z        X      Y      Z
   1   8    -0.04   0.02   0.04    -0.09   0.06  -0.04    -0.05  -0.01   0.05
   2   6    -0.06   0.10   0.05    -0.00   0.03  -0.18     0.03  -0.00  -0.09
   3   1    -0.01   0.04   0.02    -0.03  -0.02  -0.07    -0.02  -0.02  -0.04
   4   1    -0.04   0.03   0.01     0.02   0.01  -0.08     0.02   0.00  -0.05
   5   6    -0.03   0.13   0.06     0.10   0.12  -0.13     0.13   0.08  -0.05
   6   1    -0.01   0.02   0.02     0.04   0.05  -0.03     0.06   0.05   0.01
   7   1    -0.01   0.05   0.02     0.04   0.04  -0.06     0.06   0.02  -0.05
   8   7     0.05   0.14   0.09     0.08   0.12  -0.02     0.06   0.07   0.04
   9   6     0.06   0.16   0.10     0.02   0.20   0.02     0.18   0.14   0.04
  10   1     0.01   0.06   0.03    -0.00   0.07   0.01     0.06   0.04  -0.02
  11   1     0.03   0.05   0.03     0.02   0.06   0.02     0.04   0.04   0.03
  12   1     0.01   0.04   0.03    -0.01   0.06  -0.01     0.07   0.05   0.03
  13   6     0.06   0.16   0.09     0.11   0.04   0.06    -0.07  -0.05  -0.06
  14   1     0.02   0.05   0.03     0.06   0.01   0.01    -0.04  -0.02  -0.01
  15   1     0.02   0.05   0.02     0.01   0.01   0.02    -0.04  -0.02  -0.01
  16   1     0.01   0.05   0.03     0.03  -0.00   0.03     0.00  -0.04  -0.05
  17   6     0.06   0.07   0.10     0.09   0.09  -0.03    -0.03   0.10   0.22
  18   1     0.02   0.01   0.02     0.03   0.01  -0.02    -0.03   0.01   0.06
  19   1     0.02   0.02   0.03     0.02   0.04  -0.02     0.02   0.06   0.08
  20   1     0.03   0.02   0.04     0.02   0.02   0.01    -0.03   0.03   0.09
  21   1    -0.02  -0.01   0.00    -0.00   0.03   0.01     0.00   0.00   0.03
  22   6     0.11  -0.09  -0.06    -0.00  -0.10   0.08    -0.04  -0.15   0.01
  23   8     0.13  -0.11   0.06     0.11  -0.21   0.30     0.06  -0.26   0.08
  24   7     0.10  -0.05  -0.28    -0.12  -0.14   0.04    -0.16  -0.20  -0.05
  25   1     0.04  -0.02  -0.04    -0.04  -0.05  -0.01    -0.04  -0.06   0.01
  26   1     0.03  -0.02  -0.05    -0.06  -0.00  -0.08    -0.06  -0.04  -0.02
  27   7     0.12  -0.12  -0.01    -0.03   0.05  -0.13    -0.05  -0.03  -0.07
  28   1     0.03  -0.03  -0.06    -0.02   0.02  -0.01    -0.03   0.01  -0.01
  29   1     0.03  -0.04   0.01     0.02   0.01   0.03     0.01  -0.00   0.00
  30   6    -0.09  -0.08  -0.04     0.01   0.07   0.01    -0.05   0.07  -0.04
  31   8    -0.32  -0.04  -0.11     0.01   0.08   0.02     0.08   0.02   0.11
  32   7     0.09   0.07  -0.04     0.02   0.08  -0.01    -0.20  -0.09  -0.12
  33   1     0.01   0.06  -0.01     0.00   0.02   0.00    -0.04  -0.07  -0.02
  34   1     0.06   0.01   0.01     0.00   0.02   0.00    -0.08  -0.01  -0.07
  35   7    -0.06  -0.28   0.01     0.01   0.07   0.01    -0.06   0.27  -0.14
  36   1     0.03  -0.08  -0.00     0.00   0.02   0.01    -0.05   0.08  -0.05
  37   1    -0.03  -0.09  -0.01    -0.00   0.01  -0.00    -0.01   0.10  -0.00
  38   6    -0.10   0.03  -0.06    -0.02  -0.07   0.11     0.08   0.02  -0.08
  39   8    -0.10   0.15  -0.17    -0.03  -0.14   0.26     0.10   0.08  -0.19
  40   7     0.02  -0.08  -0.04    -0.15  -0.01   0.05     0.19  -0.01  -0.02
  41   1     0.03  -0.02  -0.02    -0.07  -0.01   0.03     0.07  -0.00  -0.02
  42   1     0.00  -0.04   0.01    -0.04   0.01  -0.02     0.05  -0.02   0.01
  43   7    -0.24   0.01   0.02     0.10  -0.06   0.02    -0.01  -0.02  -0.05
  44   1    -0.07  -0.03   0.01     0.03  -0.00  -0.02    -0.00  -0.01   0.01
  45   1    -0.09   0.01  -0.01     0.05  -0.02   0.02    -0.02   0.01  -0.01
  46   6     0.05  -0.05   0.04    -0.05  -0.10  -0.09    -0.04   0.01   0.10
  47   8     0.13  -0.10   0.03    -0.18  -0.32  -0.21    -0.15   0.26   0.21
  48   7     0.16  -0.22  -0.06     0.03  -0.10   0.12     0.02  -0.12  -0.00
  49   1     0.03  -0.04  -0.02    -0.01  -0.06   0.06     0.00  -0.00  -0.01
  50   1     0.00  -0.02   0.00     0.02   0.02   0.05     0.03  -0.09  -0.02
  51   7    -0.13   0.15   0.14    -0.02   0.16  -0.23     0.03  -0.18   0.11
  52   1    -0.04   0.04   0.04     0.05   0.05  -0.05    -0.00  -0.07   0.02
  53   1    -0.05   0.06   0.05     0.00   0.01  -0.12    -0.03   0.00   0.07
                     16                     17                     18
                        a                      a                      a 
 Frequencies --    87.8316                96.3627               106.1659
 Red. masses --    11.4609                12.0105                11.6413
 Frc consts  --     0.0000                 0.0000                 0.0000
 IR Inten    --     3.0785                 2.0085                 2.2457
 Raman Activ --     0.0000                 0.0000                 0.0000
 Depolar     --     0.0000                 0.0000                 0.0000
 Atom AN      X      Y      Z        X      Y      Z        X      Y      Z
   1   8    -0.05   0.16   0.12    -0.07  -0.00   0.03    -0.07  -0.11   0.08
   2   6     0.09  -0.10  -0.08    -0.05  -0.00   0.00    -0.15   0.10   0.19
   3   1    -0.02  -0.09  -0.05    -0.02   0.00  -0.00    -0.01   0.10   0.06
   4   1     0.10  -0.04  -0.04    -0.02  -0.00   0.00    -0.12   0.03   0.09
   5   6     0.12  -0.08  -0.07    -0.02  -0.03  -0.01    -0.12  -0.01   0.12
   6   1     0.06   0.01  -0.00    -0.02  -0.03  -0.01    -0.05  -0.04   0.04
   7   1     0.06  -0.05  -0.04    -0.02   0.01   0.00    -0.05   0.01   0.05
   8   7    -0.05  -0.10  -0.03     0.09  -0.02  -0.05     0.04   0.01  -0.04
   9   6    -0.27  -0.08   0.02    -0.10  -0.04  -0.02     0.18  -0.10  -0.10
  10   1    -0.08  -0.04   0.04    -0.05  -0.01   0.03     0.06  -0.03  -0.05
  11   1    -0.11  -0.02   0.02    -0.02  -0.01  -0.01     0.06  -0.03  -0.05
  12   1    -0.09   0.01  -0.03    -0.06  -0.02  -0.04     0.07  -0.04  -0.00
  13   6     0.03  -0.24   0.14     0.25   0.08   0.12     0.01   0.22  -0.18
  14   1     0.06  -0.07   0.03     0.12   0.03   0.03    -0.03   0.09  -0.04
  15   1    -0.03  -0.07   0.05     0.09   0.02   0.03     0.04   0.06  -0.09
  16   1     0.01  -0.10   0.07     0.05   0.04   0.08    -0.00   0.08  -0.06
  17   6    -0.05   0.05  -0.18     0.21  -0.09  -0.27     0.06  -0.09   0.01
  18   1     0.04   0.01  -0.07     0.09  -0.02  -0.08    -0.01  -0.01   0.02
  19   1    -0.03   0.06  -0.09     0.02  -0.05  -0.11     0.02  -0.06   0.02
  20   1    -0.05   0.01  -0.03     0.09  -0.02  -0.09     0.05  -0.02  -0.02
  21   1     0.02   0.04   0.08    -0.02   0.00   0.01    -0.04  -0.06   0.01
  22   6     0.05   0.05   0.02     0.09  -0.08  -0.10    -0.02  -0.04   0.03
  23   8     0.17  -0.01  -0.08     0.16  -0.12  -0.29     0.07  -0.10   0.02
  24   7    -0.06  -0.02   0.14     0.02  -0.12  -0.08    -0.12  -0.09   0.07
  25   1    -0.02  -0.03   0.01     0.01  -0.05  -0.00    -0.04  -0.04  -0.00
  26   1    -0.04   0.01   0.03     0.00  -0.04   0.05    -0.05  -0.00  -0.01
  27   7     0.07   0.21   0.03     0.12  -0.02   0.04    -0.02   0.09   0.01
  28   1    -0.01   0.08   0.03     0.02   0.01   0.01    -0.02   0.03   0.02
  29   1     0.05   0.08  -0.01     0.04   0.01  -0.03     0.02   0.03   0.01
  30   6    -0.01  -0.01   0.07    -0.09   0.05  -0.07     0.09  -0.13   0.06
  31   8    -0.07  -0.02   0.23    -0.05   0.03  -0.02     0.21  -0.18   0.18
  32   7     0.06  -0.03  -0.07    -0.17  -0.01  -0.09     0.00  -0.26  -0.01
  33   1     0.01  -0.02  -0.01    -0.04  -0.02  -0.02     0.01  -0.10   0.00
  34   1     0.02  -0.01  -0.05    -0.06  -0.00  -0.04    -0.02  -0.06  -0.03
  35   7    -0.01   0.03   0.05    -0.08   0.13  -0.14     0.08   0.01   0.02
  36   1     0.02   0.01  -0.03    -0.04   0.04  -0.04    -0.00   0.01  -0.01
  37   1    -0.00   0.01   0.02    -0.03   0.05  -0.02     0.02   0.01   0.02
  38   6    -0.04   0.07  -0.05    -0.10   0.02   0.08    -0.06   0.16  -0.08
  39   8    -0.02   0.32  -0.17    -0.13  -0.01   0.24    -0.06   0.28  -0.04
  40   7     0.18  -0.10   0.01    -0.25   0.03  -0.02    -0.06   0.06  -0.16
  41   1     0.10  -0.00  -0.01    -0.09   0.01   0.01    -0.01   0.03  -0.04
  42   1     0.05  -0.07   0.03    -0.06   0.02  -0.04    -0.01   0.00  -0.05
  43   7    -0.26  -0.04   0.01    -0.01   0.04   0.02    -0.11   0.15  -0.07
  44   1    -0.07  -0.05   0.03    -0.00   0.01  -0.02    -0.03   0.02  -0.03
  45   1    -0.10   0.02   0.00     0.01   0.01   0.02    -0.03   0.05  -0.01
  46   6     0.02  -0.01  -0.02     0.03   0.05   0.15     0.02  -0.01  -0.01
  47   8    -0.06  -0.08  -0.06    -0.03   0.17   0.21    -0.08  -0.14  -0.08
  48   7     0.10  -0.07   0.04     0.07   0.01   0.14     0.05   0.03   0.15
  49   1     0.01  -0.00   0.02     0.01   0.01   0.04    -0.01   0.01   0.06
  50   1     0.02   0.01   0.02     0.04  -0.03   0.03     0.02   0.04   0.05
  51   7     0.03   0.12  -0.08     0.13  -0.08   0.13     0.09   0.13  -0.13
  52   1     0.04   0.03  -0.02     0.00   0.01   0.04     0.07   0.04  -0.03
  53   1     0.01   0.02  -0.05    -0.01   0.03   0.06     0.04   0.01  -0.08
                     19                     20                     21
                        a                      a                      a 
 Frequencies --   115.4724               126.5989               142.4572
 Red. masses --    12.1748                12.5109                12.6276
 Frc consts  --     0.0000                 0.0000                 0.0000
 IR Inten    --    12.2778                27.2032                 8.3746
 Raman Activ --     0.0000                 0.0000                 0.0000
 Depolar     --     0.0000                 0.0000                 0.0000
 Atom AN      X      Y      Z        X      Y      Z        X      Y      Z
   1   8    -0.08  -0.03   0.09     0.14   0.09   0.07     0.06  -0.06  -0.11
   2   6     0.01  -0.06  -0.08     0.19  -0.03  -0.04    -0.02   0.02   0.01
   3   1    -0.02  -0.02  -0.05     0.03  -0.03  -0.03     0.02   0.02   0.02
   4   1     0.02  -0.02  -0.02     0.09  -0.01  -0.02    -0.03   0.01   0.01
   5   6     0.18  -0.09  -0.11     0.21  -0.02  -0.04    -0.09   0.03   0.02
   6   1     0.08  -0.01   0.01     0.06  -0.00  -0.01    -0.04  -0.00  -0.01
   7   1     0.08  -0.05  -0.07     0.06  -0.01  -0.02    -0.04   0.02   0.02
   8   7     0.04  -0.10  -0.16     0.23  -0.03  -0.02    -0.02   0.03   0.03
   9   6     0.15  -0.14  -0.19     0.27   0.02  -0.01    -0.03   0.04   0.04
  10   1     0.06  -0.05  -0.07     0.08   0.01  -0.02    -0.01   0.01   0.01
  11   1     0.03  -0.04  -0.06     0.07   0.01   0.01    -0.01   0.01   0.01
  12   1     0.07  -0.03  -0.03     0.09   0.02   0.00    -0.01   0.01   0.01
  13   6    -0.09  -0.16  -0.29     0.16  -0.08  -0.07     0.02   0.07   0.06
  14   1    -0.05  -0.02  -0.08     0.02  -0.04  -0.02     0.01   0.02   0.02
  15   1    -0.05  -0.05  -0.11     0.05  -0.02  -0.00     0.02   0.02   0.02
  16   1    -0.00  -0.08  -0.11     0.05  -0.01  -0.05    -0.00   0.03   0.03
  17   6    -0.07   0.02   0.00     0.18  -0.02   0.07     0.02  -0.03  -0.00
  18   1    -0.04   0.01   0.01     0.04  -0.01   0.02     0.01  -0.01  -0.00
  19   1     0.01   0.03   0.03     0.07  -0.00   0.03    -0.00  -0.02  -0.01
  20   1    -0.05   0.00   0.00     0.05  -0.01   0.02     0.02  -0.01  -0.00
  21   1    -0.00   0.00   0.04     0.05   0.02   0.04    -0.00  -0.02  -0.05
  22   6     0.08   0.05   0.12    -0.23  -0.02  -0.07    -0.09  -0.09   0.01
  23   8     0.16  -0.02   0.38    -0.38   0.08  -0.26     0.13  -0.25  -0.14
  24   7     0.03   0.06   0.01    -0.12   0.00   0.03    -0.33  -0.23   0.15
  25   1     0.01   0.01   0.02    -0.03   0.02  -0.00    -0.10  -0.08   0.01
  26   1    -0.00   0.04  -0.07    -0.01  -0.02   0.05    -0.12  -0.03   0.02
  27   7     0.07   0.15  -0.07    -0.25  -0.21   0.03    -0.08   0.23   0.06
  28   1     0.01   0.05  -0.02    -0.03  -0.08   0.05    -0.07   0.10   0.06
  29   1     0.04   0.03   0.04    -0.10  -0.06  -0.01     0.04   0.09   0.00
  30   6    -0.05  -0.03  -0.02    -0.01   0.01   0.04     0.09  -0.05   0.04
  31   8    -0.16  -0.00  -0.06    -0.10   0.03   0.08    -0.02  -0.01  -0.09
  32   7     0.04   0.05   0.01     0.08   0.07   0.02     0.20   0.10   0.16
  33   1    -0.00   0.04   0.01     0.01   0.03   0.01     0.05   0.07   0.03
  34   1     0.03   0.01   0.02     0.05   0.01   0.00     0.09   0.02   0.08
  35   7    -0.02  -0.13  -0.01     0.02  -0.04   0.04     0.11  -0.21   0.10
  36   1     0.01  -0.04   0.00     0.03  -0.01  -0.00     0.04  -0.06   0.04
  37   1    -0.01  -0.04  -0.00    -0.00  -0.02   0.01     0.02  -0.06   0.02
  38   6    -0.14  -0.00   0.04    -0.12   0.02   0.04    -0.01  -0.05   0.03
  39   8    -0.17  -0.01   0.13    -0.13   0.13   0.06    -0.01  -0.06   0.01
  40   7    -0.23   0.00  -0.02    -0.09  -0.04   0.04     0.00  -0.03   0.07
  41   1    -0.08   0.00   0.01    -0.01  -0.01   0.01     0.00  -0.01   0.02
  42   1    -0.06   0.01  -0.02    -0.02  -0.04  -0.00     0.00  -0.01   0.02
  43   7    -0.11   0.01   0.01    -0.20  -0.04   0.03    -0.02  -0.06   0.03
  44   1    -0.03  -0.00  -0.01    -0.06  -0.03   0.00    -0.00  -0.01   0.01
  45   1    -0.03  -0.00   0.00    -0.06  -0.00   0.01    -0.01  -0.02   0.00
  46   6     0.09   0.10   0.06     0.01   0.03  -0.01     0.02   0.15  -0.10
  47   8     0.12   0.20   0.11    -0.03   0.01  -0.03    -0.00   0.39  -0.03
  48   7     0.07   0.10  -0.01     0.04   0.02   0.03     0.05   0.06  -0.28
  49   1     0.01   0.04  -0.00    -0.01   0.01   0.02     0.00   0.05  -0.08
  50   1     0.01   0.02  -0.01     0.01   0.02   0.01     0.00  -0.02  -0.09
  51   7     0.07   0.04   0.11     0.07   0.04  -0.06     0.03   0.00  -0.08
  52   1     0.03  -0.03   0.02     0.01   0.04  -0.01     0.03  -0.07  -0.04
  53   1     0.04  -0.01   0.04    -0.00   0.03  -0.02     0.01   0.00   0.00
                     22                     23                     24
                        a                      a                      a 
 Frequencies --   161.1743               170.1588               182.8825
 Red. masses --    12.3438                13.6073                12.3114
 Frc consts  --     0.0000                 0.0000                 0.0000
 IR Inten    --     5.8526                32.6619                37.1184
 Raman Activ --     0.0000                 0.0000                 0.0000
 Depolar     --     0.0000                 0.0000                 0.0000
 Atom AN      X      Y      Z        X      Y      Z        X      Y      Z
   1   8     0.25  -0.14  -0.36     0.06  -0.10  -0.06     0.02  -0.12  -0.01
   2   6     0.06  -0.04  -0.04     0.01  -0.01   0.01    -0.00  -0.00   0.00
   3   1     0.07   0.01   0.04     0.02   0.02   0.01     0.01   0.02   0.01
   4   1    -0.02  -0.01   0.00    -0.02  -0.00   0.01    -0.03   0.00   0.00
   5   6    -0.19  -0.05  -0.02    -0.02  -0.02   0.00     0.03   0.01   0.01
   6   1    -0.10  -0.03  -0.06    -0.01  -0.01  -0.00     0.01   0.01   0.01
   7   1    -0.09   0.01   0.05    -0.01  -0.01   0.01     0.02  -0.00  -0.01
   8   7    -0.05  -0.04  -0.01     0.00  -0.02  -0.03    -0.00   0.01  -0.01
   9   6     0.06   0.01  -0.01     0.03  -0.04  -0.04    -0.03  -0.02  -0.02
  10   1     0.02   0.01  -0.03     0.02  -0.02  -0.02    -0.01  -0.01   0.00
  11   1     0.02   0.00   0.01    -0.00  -0.01  -0.01    -0.01  -0.01  -0.01
  12   1     0.03   0.01   0.01     0.02   0.00  -0.00    -0.01  -0.01  -0.01
  13   6    -0.05   0.06  -0.06     0.00   0.03  -0.06    -0.01   0.00  -0.01
  14   1    -0.05  -0.02  -0.02    -0.01   0.01  -0.02     0.00   0.01  -0.00
  15   1     0.03   0.02   0.00     0.02   0.01  -0.02    -0.01  -0.00  -0.01
  16   1    -0.03   0.06  -0.04    -0.00   0.02  -0.02     0.00  -0.01   0.00
  17   6    -0.01  -0.18   0.04     0.01  -0.05  -0.03    -0.01   0.03  -0.02
  18   1    -0.03  -0.05   0.02    -0.00  -0.01  -0.00     0.01  -0.00  -0.02
  19   1    -0.00  -0.09   0.03     0.00  -0.03  -0.01    -0.01   0.03  -0.02
  20   1     0.03  -0.05  -0.00     0.01  -0.01  -0.01    -0.01   0.01   0.01
  21   1     0.03  -0.04  -0.13     0.00  -0.02  -0.04    -0.00  -0.03  -0.01
  22   6     0.05   0.00   0.02     0.03   0.01   0.01     0.13   0.01  -0.02
  23   8     0.07  -0.01   0.07     0.02   0.01   0.05     0.04   0.09   0.02
  24   7     0.03  -0.00  -0.00     0.04   0.02  -0.03     0.22   0.08  -0.11
  25   1     0.01  -0.00  -0.00     0.01   0.01   0.01     0.06   0.04  -0.07
  26   1     0.00   0.01  -0.02     0.01   0.00   0.00     0.06   0.03  -0.07
  27   7     0.06   0.04   0.00     0.03  -0.00  -0.02     0.10  -0.12  -0.12
  28   1     0.01   0.02  -0.02     0.01  -0.00  -0.01     0.10  -0.08   0.16
  29   1     0.02   0.01  -0.00     0.00  -0.00   0.00     0.03  -0.08   0.12
  30   6     0.03   0.16  -0.02     0.02   0.05  -0.01     0.08  -0.04   0.05
  31   8     0.13   0.18  -0.04     0.06   0.05  -0.04     0.04  -0.03  -0.02
  32   7    -0.02   0.16  -0.01    -0.01   0.04  -0.01     0.13   0.04   0.12
  33   1     0.01   0.04  -0.02     0.00   0.01  -0.01     0.05   0.03   0.00
  34   1    -0.01   0.04  -0.01    -0.01   0.01   0.00     0.07   0.00   0.03
  35   7    -0.02   0.27   0.02    -0.01   0.09   0.00     0.10  -0.11   0.05
  36   1    -0.04   0.07   0.02    -0.01   0.02   0.01     0.01  -0.03   0.05
  37   1    -0.00   0.08   0.01     0.01   0.03  -0.00    -0.00  -0.03   0.05
  38   6    -0.14  -0.10   0.04     0.03   0.13   0.19    -0.02  -0.00   0.00
  39   8    -0.16  -0.02  -0.15     0.07   0.51   0.48    -0.02   0.03  -0.02
  40   7     0.04  -0.16   0.18     0.08  -0.14  -0.01     0.02  -0.03   0.02
  41   1     0.05  -0.04   0.02     0.05   0.07   0.10     0.02   0.00   0.01
  42   1     0.01  -0.08   0.08     0.02  -0.06   0.01     0.00  -0.01   0.02
  43   7    -0.33  -0.16   0.10    -0.00  -0.09   0.01    -0.06  -0.02   0.01
  44   1    -0.08  -0.03   0.08    -0.02  -0.12  -0.09    -0.02  -0.01   0.01
  45   1    -0.11  -0.03   0.02    -0.01  -0.01   0.01    -0.02  -0.00   0.00
  46   6     0.05   0.00   0.06    -0.10  -0.10  -0.10    -0.24   0.08   0.01
  47   8     0.02  -0.09   0.03     0.01   0.01  -0.07    -0.58   0.29   0.07
  48   7     0.03   0.05   0.15    -0.07  -0.20  -0.28    -0.06  -0.09   0.15
  49   1     0.01   0.02   0.04    -0.04  -0.02  -0.08    -0.03  -0.04   0.06
  50   1     0.01   0.03   0.05    -0.05  -0.04  -0.07     0.11  -0.11   0.00
  51   7     0.08   0.06   0.02    -0.26  -0.15   0.05     0.07  -0.07  -0.23
  52   1     0.04   0.03   0.01    -0.10  -0.08  -0.00    -0.02   0.09  -0.03
  53   1     0.03  -0.00  -0.02    -0.06  -0.04   0.06    -0.14   0.14  -0.05
                     25                     26                     27
                        a                      a                      a 
 Frequencies --   195.0577               205.8100               223.4340
 Red. masses --    10.8012                 2.8940                 4.4674
 Frc consts  --     0.0000                 0.0000                 0.0000
 IR Inten    --     2.1763               114.9700               151.4146
 Raman Activ --     0.0000                 0.0000                 0.0000
 Depolar     --     0.0000                 0.0000                 0.0000
 Atom AN      X      Y      Z        X      Y      Z        X      Y      Z
   1   8    -0.01   0.55  -0.17    -0.01   0.01   0.00     0.08  -0.09  -0.08
   2   6     0.05  -0.06  -0.09    -0.00   0.01  -0.01     0.02   0.01  -0.00
   3   1    -0.02  -0.11  -0.02    -0.00   0.00  -0.01     0.02   0.02   0.01
   4   1     0.14  -0.04  -0.02    -0.00   0.00  -0.00    -0.02   0.00   0.00
   5   6    -0.25  -0.11  -0.08     0.01   0.00  -0.01    -0.01   0.00  -0.00
   6   1    -0.13  -0.05  -0.09     0.00  -0.00  -0.00    -0.00   0.00  -0.00
   7   1    -0.12   0.00   0.04    -0.00   0.01  -0.00    -0.00   0.00   0.00
   8   7    -0.04  -0.12   0.02     0.02  -0.00  -0.01    -0.02   0.00  -0.01
   9   6     0.13   0.06   0.06     0.02  -0.00  -0.01    -0.01   0.00  -0.01
  10   1     0.05   0.03  -0.04     0.01   0.00   0.00    -0.02   0.02   0.01
  11   1     0.03   0.02   0.05     0.01  -0.00  -0.00     0.03   0.00  -0.01
  12   1     0.07   0.05   0.04     0.01  -0.00  -0.00    -0.02  -0.03  -0.01
  13   6    -0.02  -0.03   0.01     0.01  -0.01  -0.01    -0.02   0.01  -0.01
  14   1    -0.06  -0.11  -0.01     0.01   0.01  -0.00     0.00   0.02   0.00
  15   1     0.09   0.01   0.09    -0.01  -0.01  -0.02    -0.02   0.00  -0.02
  16   1    -0.03   0.09  -0.06     0.01  -0.02   0.01    -0.00  -0.01   0.01
  17   6     0.01  -0.30   0.10     0.01   0.00   0.00    -0.02  -0.00   0.01
  18   1    -0.09  -0.00   0.09     0.00   0.00   0.00     0.02  -0.04  -0.02
  19   1     0.03  -0.23   0.10     0.00   0.00   0.00    -0.01   0.04  -0.02
  20   1     0.09  -0.07  -0.09     0.00   0.00   0.00    -0.02  -0.01   0.05
  21   1     0.03   0.14  -0.00    -0.00   0.00   0.00     0.00  -0.04  -0.03
  22   6     0.06  -0.01   0.02     0.01  -0.01  -0.02    -0.03  -0.00   0.07
  23   8     0.07  -0.02   0.07    -0.01   0.00   0.09     0.01  -0.03   0.07
  24   7     0.04  -0.00  -0.02     0.05   0.01   0.02    -0.06   0.01  -0.00
  25   1     0.01  -0.00  -0.01     0.04  -0.02   0.11     0.00  -0.03   0.08
  26   1     0.01   0.00  -0.01     0.06  -0.07   0.24     0.01  -0.04   0.18
  27   7     0.06   0.02  -0.02     0.09  -0.07   0.22    -0.05   0.09  -0.06
  28   1     0.02   0.00   0.01    -0.14   0.08  -0.73    -0.02   0.03   0.02
  29   1     0.02   0.00   0.02    -0.10   0.08  -0.45     0.01   0.03  -0.01
  30   6    -0.05  -0.04   0.06     0.02  -0.01   0.01    -0.04   0.01   0.04
  31   8    -0.16  -0.05   0.18     0.02  -0.01  -0.02    -0.11   0.01   0.16
  32   7     0.02  -0.04  -0.02     0.04   0.01   0.03     0.01   0.01  -0.02
  33   1    -0.02  -0.02   0.02     0.01   0.01   0.01    -0.03   0.00   0.03
  34   1     0.02  -0.01  -0.03     0.01   0.00   0.02     0.00   0.00  -0.01
  35   7     0.01  -0.09  -0.02     0.02  -0.03   0.01    -0.02   0.01   0.02
  36   1     0.04  -0.02  -0.04     0.00  -0.01   0.01     0.06   0.01  -0.07
  37   1    -0.01  -0.03   0.01     0.00  -0.01   0.01     0.01  -0.00  -0.03
  38   6     0.04   0.06  -0.02    -0.01  -0.00   0.00     0.01   0.02  -0.01
  39   8     0.05   0.03   0.05    -0.01   0.00   0.00     0.01   0.01   0.01
  40   7    -0.02   0.06  -0.09    -0.00  -0.01   0.00    -0.02   0.04  -0.03
  41   1    -0.02   0.03   0.00     0.00   0.01   0.01    -0.02  -0.01  -0.02
  42   1    -0.01   0.04  -0.02    -0.00   0.01   0.01    -0.01  -0.01  -0.04
  43   7     0.09   0.06  -0.05    -0.01  -0.01   0.00     0.03   0.02  -0.03
  44   1     0.02   0.00  -0.03    -0.00  -0.00  -0.00     0.01   0.01   0.00
  45   1     0.03   0.02  -0.01    -0.00  -0.00  -0.00     0.01   0.02   0.01
  46   6    -0.04   0.01   0.00    -0.07   0.03  -0.02     0.03   0.02  -0.03
  47   8    -0.09   0.07   0.02    -0.17   0.09  -0.01     0.14  -0.10  -0.07
  48   7    -0.01  -0.03   0.00    -0.01  -0.02   0.02    -0.00   0.05  -0.05
  49   1    -0.01  -0.00   0.00    -0.01  -0.01   0.01     0.06  -0.05  -0.04
  50   1     0.02  -0.02  -0.01     0.03  -0.02  -0.00     0.08  -0.08  -0.06
  51   7     0.00  -0.03  -0.02     0.02   0.01  -0.10     0.23  -0.23  -0.05
  52   1    -0.01   0.01  -0.00     0.03  -0.00  -0.03    -0.41   0.49   0.12
  53   1    -0.03   0.02   0.00    -0.03   0.03  -0.03    -0.30   0.34   0.12
                     28                     29                     30
                        a                      a                      a 
 Frequencies --   231.2067               254.7014               261.1460
 Red. masses --    11.9011                 2.8081                 5.2001
 Frc consts  --     0.0000                 0.0000                 0.0000
 IR Inten    --    74.9061               131.4454                13.2135
 Raman Activ --     0.0000                 0.0000                 0.0000
 Depolar     --     0.0000                 0.0000                 0.0000
 Atom AN      X      Y      Z        X      Y      Z        X      Y      Z
   1   8     0.25  -0.30  -0.23    -0.03   0.01   0.04     0.04  -0.30   0.10
   2   6     0.08   0.02  -0.01     0.01  -0.04  -0.01     0.14  -0.20  -0.09
   3   1     0.07   0.06   0.03    -0.01  -0.04  -0.00     0.01  -0.15  -0.02
   4   1    -0.06   0.01   0.01     0.02  -0.01  -0.02     0.08  -0.04  -0.13
   5   6     0.01   0.01  -0.02    -0.01   0.00   0.02     0.04   0.08   0.05
   6   1    -0.00   0.01  -0.01    -0.01   0.00  -0.00    -0.01   0.04  -0.02
   7   1    -0.00  -0.00   0.00    -0.01   0.00   0.01     0.00   0.02   0.04
   8   7    -0.02   0.01  -0.04    -0.01   0.01   0.01    -0.02   0.11   0.02
   9   6    -0.03   0.04  -0.02    -0.00  -0.02  -0.00    -0.08  -0.08  -0.04
  10   1    -0.02   0.03   0.00     0.03  -0.05  -0.02     0.05  -0.17  -0.04
  11   1     0.01   0.01  -0.00    -0.05  -0.01   0.00    -0.19  -0.03  -0.03
  12   1    -0.02  -0.00  -0.02     0.03   0.04   0.02     0.05   0.09   0.02
  13   6    -0.02   0.00  -0.04    -0.00   0.02   0.01     0.01   0.19  -0.00
  14   1     0.01   0.04  -0.00    -0.03  -0.05  -0.01    -0.12  -0.18  -0.04
  15   1    -0.03  -0.01  -0.04     0.04   0.01   0.05     0.19   0.09   0.20
  16   1     0.00  -0.03   0.01    -0.01   0.05  -0.03    -0.05   0.26  -0.15
  17   6     0.00  -0.04  -0.01    -0.01   0.03  -0.02    -0.03   0.20  -0.07
  18   1     0.06  -0.12  -0.07    -0.03   0.07   0.03    -0.13   0.29   0.11
  19   1    -0.02   0.10  -0.07     0.01  -0.05   0.02     0.04  -0.18   0.12
  20   1    -0.03  -0.02   0.13     0.01   0.02  -0.08     0.07   0.09  -0.32
  21   1     0.01  -0.13  -0.08     0.00   0.02   0.01     0.03  -0.04   0.03
  22   6     0.02   0.00  -0.02     0.01   0.00   0.01    -0.00  -0.01   0.01
  23   8     0.01   0.01  -0.01     0.00   0.00   0.02    -0.00  -0.01   0.01
  24   7     0.02  -0.00  -0.00     0.01   0.01  -0.01    -0.01  -0.01  -0.01
  25   1     0.00   0.01  -0.02     0.00  -0.00   0.01    -0.00  -0.01   0.01
  26   1     0.00   0.01  -0.04     0.00  -0.00   0.02     0.00  -0.01   0.02
  27   7     0.02  -0.02   0.02     0.01  -0.00  -0.01    -0.01  -0.00  -0.00
  28   1     0.00  -0.00  -0.03     0.00   0.00  -0.01    -0.01   0.00  -0.02
  29   1    -0.00  -0.00  -0.01    -0.00  -0.00  -0.00    -0.00   0.00  -0.01
  30   6    -0.14   0.01   0.17     0.02  -0.00  -0.03    -0.04   0.01   0.04
  31   8    -0.40   0.01   0.49     0.05  -0.00  -0.09    -0.09   0.01   0.12
  32   7     0.05   0.04  -0.06    -0.01  -0.01   0.00     0.03   0.01  -0.04
  33   1    -0.05   0.01   0.05    -0.00   0.00   0.00    -0.04   0.01   0.05
  34   1     0.06   0.00  -0.08    -0.02   0.00   0.03    -0.03   0.01   0.03
  35   7     0.01  -0.00  -0.04    -0.01  -0.01   0.00    -0.01   0.00   0.00
  36   1     0.07   0.00  -0.10    -0.01  -0.00   0.01     0.04   0.00  -0.05
  37   1    -0.02   0.00   0.03     0.00  -0.01  -0.01     0.00   0.00  -0.01
  38   6     0.07   0.05  -0.04     0.01  -0.02  -0.02     0.01   0.01  -0.02
  39   8     0.07  -0.01   0.04     0.01   0.08   0.05     0.01  -0.03  -0.03
  40   7    -0.04   0.12  -0.06     0.00   0.19   0.26    -0.00  -0.01  -0.06
  41   1    -0.04  -0.04  -0.08    -0.00  -0.33  -0.37    -0.01   0.06   0.06
  42   1    -0.01  -0.03  -0.12     0.02  -0.52  -0.52    -0.00   0.10   0.08
  43   7     0.13   0.05  -0.07    -0.00  -0.03  -0.02     0.01   0.02  -0.00
  44   1     0.04   0.06   0.03     0.02   0.12   0.14    -0.00  -0.02  -0.03
  45   1     0.04   0.06   0.03     0.01   0.05   0.06     0.00  -0.01  -0.01
  46   6    -0.01  -0.01   0.01    -0.02   0.00  -0.00     0.00  -0.00   0.00
  47   8    -0.05   0.04   0.02    -0.02   0.01  -0.01     0.00  -0.01  -0.00
  48   7     0.00  -0.02   0.01     0.02  -0.03  -0.02     0.00   0.00   0.01
  49   1    -0.02   0.01   0.01    -0.02   0.02   0.00    -0.00   0.00   0.00
  50   1    -0.03   0.03   0.02    -0.03   0.03   0.01     0.00  -0.00   0.00
  51   7    -0.08   0.06   0.02    -0.00  -0.03  -0.01     0.01   0.01  -0.01
  52   1     0.13  -0.17  -0.04    -0.01   0.00  -0.00     0.00   0.00  -0.00
  53   1     0.10  -0.11  -0.03    -0.01   0.01   0.01    -0.00   0.00  -0.00
                     31                     32                     33
                        a                      a                      a 
 Frequencies --   287.1868               300.4349               310.0692
 Red. masses --     2.5776                 4.4278                 8.1084
 Frc consts  --     0.0000                 0.0000                 0.0000
 IR Inten    --   113.5577                 0.4622                 3.6620
 Raman Activ --     0.0000                 0.0000                 0.0000
 Depolar     --     0.0000                 0.0000                 0.0000
 Atom AN      X      Y      Z        X      Y      Z        X      Y      Z
   1   8     0.00  -0.02   0.02     0.04   0.02   0.30     0.09  -0.13   0.23
   2   6     0.02  -0.02  -0.01     0.17  -0.09   0.00     0.03   0.24   0.16
   3   1    -0.00  -0.01  -0.00     0.00  -0.12  -0.01     0.04   0.17   0.04
   4   1     0.01  -0.00  -0.01     0.13  -0.02  -0.06    -0.09   0.07   0.10
   5   6     0.01   0.01   0.00    -0.03   0.02   0.04     0.10   0.01  -0.03
   6   1     0.00   0.01  -0.00    -0.03   0.02  -0.03     0.04  -0.01   0.01
   7   1     0.00   0.00   0.00    -0.02  -0.02   0.05     0.04  -0.04  -0.01
   8   7    -0.01   0.01  -0.00    -0.09   0.04  -0.06    -0.04  -0.00  -0.13
   9   6    -0.02   0.01  -0.00    -0.09   0.10  -0.04    -0.13   0.44   0.05
  10   1     0.00  -0.01  -0.01    -0.04   0.06  -0.00    -0.01   0.10  -0.04
  11   1    -0.02   0.00   0.00     0.01   0.03   0.01    -0.12   0.12   0.15
  12   1     0.00   0.02   0.00    -0.05   0.01  -0.03    -0.01   0.26  -0.02
  13   6    -0.00   0.02  -0.01    -0.08   0.19  -0.14    -0.14  -0.24  -0.12
  14   1    -0.02  -0.04  -0.01    -0.17  -0.18  -0.07    -0.07  -0.11  -0.04
  15   1     0.03   0.01   0.04     0.18   0.09   0.15    -0.07  -0.07   0.02
  16   1    -0.01   0.04  -0.03    -0.08   0.27  -0.21    -0.01  -0.08  -0.09
  17   6    -0.01   0.01  -0.01     0.01  -0.18  -0.04     0.08  -0.28  -0.16
  18   1    -0.01   0.01   0.00     0.15  -0.35  -0.18    -0.06   0.02   0.02
  19   1    -0.00  -0.01   0.00    -0.08   0.22  -0.20     0.02  -0.27   0.02
  20   1     0.00   0.00  -0.01    -0.05  -0.08   0.35     0.16  -0.06  -0.19
  21   1    -0.00  -0.03   0.02     0.05   0.03   0.10    -0.00  -0.06   0.05
  22   6    -0.00  -0.00   0.01     0.00  -0.01   0.01    -0.00   0.00   0.01
  23   8     0.00  -0.01   0.01     0.01  -0.01   0.01    -0.00   0.00   0.01
  24   7    -0.01  -0.00   0.00    -0.01  -0.01  -0.00     0.00   0.01   0.00
  25   1    -0.00  -0.00   0.00    -0.00  -0.00   0.00     0.00   0.00  -0.00
  26   1     0.00  -0.00   0.01    -0.00  -0.00   0.00     0.00   0.00   0.00
  27   7    -0.00   0.01   0.00     0.01   0.00   0.00    -0.00   0.00  -0.00
  28   1    -0.01   0.01  -0.02    -0.00   0.00  -0.01    -0.00   0.00  -0.01
  29   1    -0.00   0.00  -0.01     0.00   0.00  -0.00    -0.00  -0.00   0.00
  30   6     0.00  -0.01  -0.02     0.02  -0.00  -0.03     0.00  -0.00  -0.01
  31   8    -0.02  -0.01   0.03     0.04  -0.00  -0.07     0.01  -0.00  -0.02
  32   7    -0.22   0.06   0.24    -0.00  -0.01  -0.00     0.01  -0.00  -0.00
  33   1     0.30  -0.03  -0.33    -0.01  -0.00   0.01    -0.00   0.00   0.00
  34   1     0.46  -0.08  -0.59    -0.03   0.00   0.04    -0.01   0.00   0.02
  35   7     0.02  -0.02  -0.04    -0.01  -0.02   0.01     0.00   0.00  -0.00
  36   1    -0.18  -0.02   0.22     0.01  -0.01  -0.01    -0.00   0.00   0.00
  37   1    -0.07  -0.01   0.08     0.01  -0.01  -0.01     0.00   0.00   0.00
  38   6     0.01   0.01   0.00     0.00  -0.01   0.01     0.00  -0.01  -0.01
  39   8     0.01  -0.00   0.01    -0.00  -0.01   0.00    -0.00  -0.02  -0.02
  40   7    -0.01   0.01  -0.02    -0.00  -0.01   0.01     0.01   0.00   0.01
  41   1    -0.01  -0.00  -0.01    -0.00  -0.00   0.00     0.00  -0.00   0.00
  42   1    -0.00   0.01  -0.01    -0.00   0.00   0.01     0.00   0.00   0.01
  43   7     0.01  -0.01  -0.01     0.01  -0.00   0.01     0.01   0.01   0.01
  44   1     0.01   0.03   0.03     0.00  -0.00  -0.00     0.00  -0.00  -0.01
  45   1     0.00   0.01   0.01     0.00  -0.00  -0.00     0.01  -0.01  -0.00
  46   6     0.02  -0.00  -0.01    -0.00   0.00   0.00     0.00   0.00  -0.00
  47   8     0.04  -0.02  -0.02    -0.00   0.00   0.00     0.01  -0.00  -0.00
  48   7     0.00   0.01  -0.03    -0.00   0.00  -0.00     0.01  -0.01  -0.01
  49   1     0.01  -0.00  -0.01     0.00  -0.00  -0.00    -0.01   0.01   0.00
  50   1    -0.00   0.00  -0.01     0.00  -0.00  -0.00     0.00  -0.00  -0.00
  51   7     0.01  -0.00   0.01    -0.00   0.00  -0.00     0.00  -0.01   0.00
  52   1    -0.02   0.02   0.01     0.00  -0.00  -0.00    -0.02   0.02   0.01
  53   1    -0.01   0.01   0.01     0.00  -0.00  -0.00    -0.01   0.01   0.01
                     34                     35                     36
                        a                      a                      a 
 Frequencies --   337.2618               357.4076               366.6177
 Red. masses --     4.5879                 4.2324                 2.9599
 Frc consts  --     0.0000                 0.0000                 0.0000
 IR Inten    --     3.1159                 6.6202               200.5062
 Raman Activ --     0.0000                 0.0000                 0.0000
 Depolar     --     0.0000                 0.0000                 0.0000
 Atom AN      X      Y      Z        X      Y      Z        X      Y      Z
   1   8     0.07  -0.08   0.22    -0.00   0.04   0.05    -0.00   0.00  -0.02
   2   6     0.23  -0.15  -0.13     0.07   0.06  -0.12    -0.02   0.00   0.02
   3   1     0.01  -0.13  -0.06    -0.00   0.04  -0.06     0.00   0.01   0.01
   4   1     0.15  -0.04  -0.11     0.02   0.02  -0.02    -0.01  -0.00   0.01
   5   6     0.04   0.04  -0.03     0.11   0.04  -0.11     0.00  -0.01   0.01
   6   1     0.00   0.06  -0.04     0.05   0.05  -0.03     0.01  -0.01   0.01
   7   1     0.01  -0.01   0.01     0.05  -0.03  -0.04     0.00   0.01  -0.01
   8   7    -0.11   0.05   0.01    -0.04   0.01  -0.02     0.01  -0.01   0.01
   9   6    -0.10   0.04   0.00    -0.18  -0.11  -0.04     0.01   0.01   0.02
  10   1    -0.18   0.26   0.12     0.12  -0.36  -0.09    -0.04   0.07   0.03
  11   1     0.30   0.03  -0.05    -0.46  -0.05   0.01     0.08   0.01  -0.00
  12   1    -0.19  -0.25  -0.07     0.11   0.27   0.05    -0.04  -0.06  -0.01
  13   6    -0.10   0.26  -0.08     0.06   0.25   0.01    -0.01  -0.03  -0.01
  14   1     0.05   0.31   0.02     0.11   0.27   0.04    -0.02  -0.03  -0.00
  15   1    -0.14   0.05  -0.26    -0.05   0.05  -0.18     0.01  -0.01   0.02
  16   1    -0.00  -0.08   0.13     0.02  -0.03   0.15    -0.00   0.01  -0.03
  17   6    -0.04  -0.18   0.05    -0.01  -0.26   0.23     0.01   0.02  -0.02
  18   1    -0.11   0.04   0.08    -0.06  -0.17   0.04     0.01   0.02   0.00
  19   1     0.00  -0.22   0.09     0.02  -0.05   0.08     0.00  -0.00  -0.00
  20   1     0.10  -0.03  -0.12     0.04  -0.08   0.16     0.00   0.01  -0.02
  21   1     0.07   0.02   0.09     0.01   0.00   0.04    -0.00  -0.00  -0.01
  22   6     0.00   0.00  -0.01    -0.00   0.01   0.02     0.01  -0.04   0.13
  23   8     0.00   0.00  -0.02    -0.00   0.01   0.00     0.02  -0.03   0.06
  24   7    -0.00  -0.01   0.01    -0.00   0.03  -0.03    -0.02   0.09  -0.24
  25   1    -0.00  -0.00  -0.01     0.00  -0.01   0.02     0.03  -0.05   0.12
  26   1    -0.01   0.00  -0.02     0.02  -0.03   0.11     0.10  -0.19   0.75
  27   7     0.01  -0.00   0.01    -0.02  -0.00  -0.03    -0.05   0.04  -0.19
  28   1     0.00   0.00  -0.00     0.01  -0.01   0.03     0.02  -0.01   0.19
  29   1     0.00   0.00  -0.00    -0.00  -0.00   0.01     0.02  -0.01   0.07
  30   6    -0.00   0.00  -0.00     0.01   0.00  -0.01     0.03   0.00  -0.04
  31   8    -0.01   0.00  -0.00     0.01  -0.00  -0.02     0.02  -0.00  -0.02
  32   7    -0.01   0.00  -0.00    -0.01   0.00   0.01    -0.03   0.01   0.05
  33   1     0.01  -0.00  -0.01     0.00  -0.00  -0.00     0.01  -0.00  -0.01
  34   1     0.01  -0.00  -0.01     0.00  -0.00  -0.00     0.03  -0.01  -0.04
  35   7    -0.00  -0.01  -0.00    -0.01  -0.01   0.01    -0.05  -0.01   0.06
  36   1    -0.00  -0.00   0.01     0.02  -0.00  -0.02     0.12   0.01  -0.15
  37   1    -0.00  -0.01   0.00     0.01  -0.00  -0.01     0.03   0.00  -0.04
  38   6     0.00   0.01  -0.00    -0.00  -0.01  -0.01    -0.01  -0.00  -0.01
  39   8     0.00   0.02   0.01    -0.00  -0.02  -0.01    -0.01  -0.01  -0.01
  40   7     0.01   0.01   0.01    -0.00   0.00   0.01     0.01  -0.01   0.00
  41   1     0.01  -0.01  -0.01    -0.00  -0.00  -0.00     0.01   0.00   0.00
  42   1     0.00  -0.03  -0.03    -0.00   0.01   0.01     0.00   0.01   0.02
  43   7    -0.00   0.00  -0.00     0.01   0.01   0.01    -0.00   0.00  -0.00
  44   1    -0.00  -0.00   0.00    -0.00  -0.01  -0.02    -0.00  -0.01  -0.01
  45   1    -0.00  -0.00  -0.00     0.00  -0.01  -0.01     0.00  -0.00  -0.00
  46   6    -0.00  -0.00   0.00    -0.00   0.00  -0.00    -0.03   0.02  -0.00
  47   8    -0.00   0.00   0.00    -0.00  -0.00  -0.00    -0.02   0.01  -0.00
  48   7    -0.01   0.01   0.01     0.02  -0.01  -0.01     0.03  -0.03  -0.01
  49   1     0.01  -0.01  -0.01    -0.02   0.02   0.01    -0.03   0.02   0.02
  50   1     0.01  -0.01  -0.00    -0.03   0.03   0.01    -0.14   0.17   0.07
  51   7    -0.00   0.01   0.00     0.00  -0.00  -0.00     0.00   0.04  -0.04
  52   1     0.01  -0.01  -0.00     0.01  -0.01  -0.00     0.16  -0.18  -0.06
  53   1     0.01  -0.01  -0.00    -0.00   0.01   0.00    -0.00   0.01  -0.00
                     37                     38                     39
                        a                      a                      a 
 Frequencies --   374.8431               402.0384               410.2285
 Red. masses --     5.7739                 3.4152                 3.2269
 Frc consts  --     0.0000                 0.0000                 0.0000
 IR Inten    --     1.8034               122.9093               172.7202
 Raman Activ --     0.0000                 0.0000                 0.0000
 Depolar     --     0.0000                 0.0000                 0.0000
 Atom AN      X      Y      Z        X      Y      Z        X      Y      Z
   1   8    -0.02   0.08  -0.16     0.00  -0.01  -0.01    -0.01   0.01  -0.04
   2   6    -0.10   0.24  -0.03     0.01  -0.01  -0.00    -0.02  -0.01   0.01
   3   1    -0.00   0.20  -0.04     0.00  -0.00   0.00    -0.00   0.01   0.00
   4   1    -0.14   0.06   0.10    -0.00  -0.00  -0.00    -0.01  -0.00   0.01
   5   6     0.31  -0.01  -0.14    -0.01   0.00   0.00     0.03  -0.01   0.00
   6   1     0.19   0.05   0.08    -0.00   0.00  -0.00     0.02   0.00   0.02
   7   1     0.18  -0.05  -0.16    -0.01   0.00   0.00     0.02  -0.01  -0.01
   8   7     0.04  -0.07   0.01    -0.00  -0.00   0.00     0.00  -0.01   0.00
   9   6    -0.26  -0.18   0.03     0.00  -0.01   0.00    -0.02  -0.01   0.01
  10   1    -0.18   0.06   0.16    -0.00   0.00   0.00    -0.02   0.02   0.02
  11   1     0.09  -0.04  -0.05     0.01  -0.00  -0.00     0.02  -0.00   0.00
  12   1    -0.20  -0.21  -0.07    -0.00  -0.01   0.00    -0.02  -0.02  -0.00
  13   6     0.09   0.07  -0.00    -0.01  -0.00  -0.00    -0.01   0.01  -0.02
  14   1    -0.10  -0.16  -0.02    -0.00  -0.00   0.00    -0.01  -0.00  -0.01
  15   1     0.22   0.05   0.15    -0.00  -0.00  -0.00     0.01   0.01  -0.00
  16   1    -0.03   0.22  -0.13    -0.00  -0.00  -0.00    -0.00   0.01  -0.01
  17   6    -0.03  -0.14   0.25     0.00   0.00  -0.01     0.00   0.01  -0.00
  18   1    -0.10  -0.02   0.10     0.01  -0.01  -0.01    -0.00   0.01   0.00
  19   1     0.04  -0.09   0.14    -0.00   0.01  -0.01     0.00  -0.00   0.00
  20   1     0.03  -0.03   0.03    -0.01  -0.00   0.01    -0.00   0.00  -0.01
  21   1    -0.04  -0.03  -0.04     0.01   0.04  -0.02    -0.01  -0.01  -0.00
  22   6     0.00   0.00  -0.00    -0.00  -0.00   0.02     0.01   0.02  -0.03
  23   8     0.00   0.00  -0.00     0.00  -0.01   0.01     0.00   0.03  -0.01
  24   7    -0.02  -0.01   0.01     0.00   0.02  -0.03    -0.01  -0.02   0.07
  25   1    -0.01  -0.01  -0.00     0.00  -0.00   0.00    -0.01  -0.00   0.00
  26   1    -0.01   0.01  -0.02     0.02  -0.03   0.12    -0.04   0.07  -0.26
  27   7     0.00  -0.02   0.00    -0.01   0.01  -0.03     0.03  -0.03   0.05
  28   1     0.00  -0.01  -0.02     0.00   0.00   0.02     0.01  -0.01  -0.07
  29   1    -0.01  -0.01  -0.01     0.00  -0.00   0.01    -0.02  -0.01  -0.02
  30   6    -0.01  -0.01   0.01    -0.08  -0.01   0.12     0.06   0.01  -0.06
  31   8    -0.01  -0.00   0.00    -0.05  -0.01   0.06     0.03   0.01  -0.02
  32   7     0.02  -0.00  -0.01     0.11  -0.02  -0.11    -0.09   0.01   0.10
  33   1    -0.01   0.01   0.01    -0.03   0.01   0.04     0.03  -0.01  -0.03
  34   1    -0.01   0.00   0.02    -0.04   0.01   0.08     0.08  -0.01  -0.12
  35   7     0.01   0.01  -0.02     0.12   0.05  -0.16    -0.09  -0.01   0.12
  36   1    -0.03   0.00   0.03    -0.35  -0.01   0.45     0.28   0.02  -0.37
  37   1    -0.01   0.01   0.01    -0.05   0.01   0.05     0.04   0.01  -0.03
  38   6    -0.01   0.01   0.00    -0.02  -0.09  -0.08    -0.02  -0.06  -0.05
  39   8    -0.01   0.01   0.00    -0.01  -0.03  -0.06    -0.02  -0.02  -0.03
  40   7     0.01  -0.00   0.00    -0.00   0.10   0.11     0.01   0.04   0.08
  41   1     0.01  -0.00  -0.00    -0.00  -0.04  -0.05     0.01  -0.03  -0.03
  42   1     0.00  -0.03  -0.01     0.00  -0.06  -0.05     0.00  -0.02   0.01
  43   7    -0.00  -0.00  -0.01     0.06   0.15   0.16     0.05   0.10   0.08
  44   1     0.00   0.02   0.01    -0.08  -0.46  -0.46    -0.04  -0.28  -0.30
  45   1     0.00  -0.00   0.00    -0.01  -0.04  -0.06     0.00  -0.01  -0.02
  46   6     0.01  -0.01  -0.00     0.00   0.00   0.00    -0.07   0.07   0.05
  47   8     0.01  -0.00  -0.00     0.01  -0.01   0.00    -0.05   0.03   0.03
  48   7    -0.01   0.02   0.01     0.01  -0.01  -0.03     0.12  -0.14  -0.06
  49   1     0.01  -0.01  -0.00    -0.01   0.01  -0.00    -0.05   0.03   0.03
  50   1     0.03  -0.03  -0.01    -0.07   0.07   0.02    -0.34   0.40   0.18
  51   7    -0.01   0.01   0.01     0.02   0.00  -0.01     0.09  -0.10  -0.02
  52   1     0.00  -0.00  -0.00     0.01   0.01   0.00    -0.05   0.07   0.02
  53   1     0.00  -0.01   0.00    -0.01   0.02  -0.00    -0.03   0.03   0.01
                     40                     41                     42
                        a                      a                      a 
 Frequencies --   428.7392               432.0128               461.0106
 Red. masses --     8.7415                 2.7985                 7.7979
 Frc consts  --     0.0000                 0.0000                 0.0000
 IR Inten    --     0.4832               532.1891                 5.1073
 Raman Activ --     0.0000                 0.0000                 0.0000
 Depolar     --     0.0000                 0.0000                 0.0000
 Atom AN      X      Y      Z        X      Y      Z        X      Y      Z
   1   8    -0.07   0.10  -0.20    -0.00   0.00   0.01    -0.00  -0.05   0.08
   2   6    -0.08  -0.12  -0.04     0.01   0.00  -0.00     0.05   0.22  -0.12
   3   1    -0.03  -0.06  -0.01    -0.00   0.00  -0.00     0.01   0.01  -0.02
   4   1     0.01  -0.03  -0.03     0.00   0.00  -0.00     0.01   0.08  -0.11
   5   6     0.12   0.05   0.11     0.01  -0.01  -0.01    -0.07   0.35  -0.00
   6   1     0.08   0.05   0.08     0.01   0.00  -0.00    -0.06   0.08  -0.05
   7   1     0.08   0.03  -0.05     0.01  -0.01  -0.00    -0.05   0.10   0.05
   8   7     0.12   0.04   0.32    -0.03  -0.01  -0.01    -0.04   0.28   0.03
   9   6    -0.08  -0.12   0.32     0.02   0.00  -0.01     0.06  -0.25  -0.18
  10   1    -0.01  -0.10   0.12     0.00   0.01  -0.01     0.02  -0.11  -0.01
  11   1    -0.10  -0.04   0.07     0.01   0.00  -0.00     0.03  -0.07  -0.21
  12   1    -0.03   0.01   0.06     0.01  -0.00   0.01     0.03  -0.18   0.01
  13   6    -0.32   0.06  -0.23     0.00   0.01   0.02    -0.14  -0.23   0.17
  14   1    -0.26   0.09  -0.02     0.01   0.00   0.00    -0.01  -0.16   0.02
  15   1    -0.14   0.01  -0.16     0.01   0.00   0.01    -0.13  -0.07   0.16
  16   1    -0.01  -0.05  -0.19    -0.01   0.01   0.02     0.00  -0.11   0.00
  17   6     0.35  -0.01  -0.14    -0.03  -0.01  -0.01     0.16  -0.15   0.03
  18   1     0.21   0.01  -0.06    -0.01  -0.00  -0.00     0.01  -0.11  -0.01
  19   1    -0.00  -0.05  -0.14    -0.01  -0.00  -0.00     0.00  -0.11  -0.01
  20   1     0.15   0.00  -0.06    -0.01  -0.00  -0.00     0.17  -0.04   0.05
  21   1    -0.02   0.03  -0.06     0.00  -0.00   0.00     0.00  -0.02   0.03
  22   6    -0.01  -0.01   0.00     0.00   0.01   0.00    -0.03  -0.07  -0.01
  23   8    -0.01  -0.01   0.00     0.01   0.01   0.00    -0.09  -0.05   0.01
  24   7     0.02   0.01   0.00    -0.01  -0.00   0.02     0.12  -0.01  -0.02
  25   1     0.01   0.01   0.00    -0.00  -0.01  -0.00     0.04   0.05   0.02
  26   1     0.01  -0.00  -0.01    -0.01   0.02  -0.05     0.06  -0.01  -0.09
  27   7    -0.01   0.02   0.00     0.01  -0.02   0.00    -0.01   0.09   0.04
  28   1    -0.01   0.01   0.00     0.01  -0.01  -0.02    -0.06   0.07   0.08
  29   1     0.01   0.01   0.00    -0.01  -0.01   0.00     0.06   0.09  -0.09
  30   6    -0.01  -0.01   0.01    -0.04  -0.00   0.04     0.01   0.00  -0.01
  31   8    -0.01  -0.00   0.01    -0.03   0.00   0.02     0.01   0.00  -0.01
  32   7     0.01  -0.00  -0.00     0.06  -0.02  -0.08    -0.01  -0.00   0.01
  33   1    -0.01   0.00   0.01    -0.03   0.00   0.03     0.02  -0.00  -0.02
  34   1     0.00  -0.00   0.00    -0.07   0.01   0.10    -0.00   0.00   0.00
  35   7     0.00   0.01  -0.01     0.08   0.00  -0.09    -0.00   0.00   0.01
  36   1    -0.02   0.00   0.02    -0.23  -0.02   0.32     0.02   0.00  -0.02
  37   1     0.00   0.00  -0.00    -0.01  -0.01   0.00     0.00   0.00   0.00
  38   6     0.00  -0.00  -0.00     0.02   0.04   0.04     0.05  -0.00   0.01
  39   8     0.00   0.00  -0.00     0.01   0.01   0.03     0.06   0.01  -0.01
  40   7    -0.00  -0.00  -0.01     0.01  -0.07  -0.08    -0.04   0.04  -0.04
  41   1    -0.01   0.00   0.01     0.01   0.04   0.04    -0.05  -0.00   0.01
  42   1    -0.00   0.01   0.01     0.00   0.07   0.07    -0.01   0.03  -0.05
  43   7    -0.01  -0.01  -0.00    -0.02  -0.09  -0.10    -0.05  -0.03   0.05
  44   1     0.00   0.03   0.03     0.06   0.32   0.31    -0.02  -0.06   0.02
  45   1    -0.00  -0.00  -0.00     0.02  -0.01   0.01    -0.05   0.00  -0.00
  46   6     0.00  -0.00  -0.00    -0.04   0.06   0.04     0.00  -0.02  -0.02
  47   8     0.00   0.00  -0.00    -0.05   0.01   0.02     0.01  -0.02  -0.02
  48   7     0.00  -0.00  -0.00     0.11  -0.12  -0.11    -0.02   0.03   0.03
  49   1    -0.01   0.00   0.00    -0.01  -0.02   0.00     0.03  -0.05   0.00
  50   1    -0.00   0.00   0.00    -0.42   0.48   0.20    -0.01   0.04   0.02
  51   7    -0.00  -0.00  -0.00     0.11  -0.09  -0.03     0.00  -0.01  -0.01
  52   1    -0.01   0.01   0.00    -0.01   0.03   0.01     0.06  -0.12  -0.03
  53   1     0.01  -0.01  -0.00    -0.09   0.11   0.03    -0.11   0.13   0.07
                     43                     44                     45
                        a                      a                      a 
 Frequencies --   464.2517               465.0590               469.2764
 Red. masses --     7.6857                 3.1030                 6.7824
 Frc consts  --     0.0000                 0.0000                 0.0000
 IR Inten    --     3.6950                 2.0468                 6.5115
 Raman Activ --     0.0000                 0.0000                 0.0000
 Depolar     --     0.0000                 0.0000                 0.0000
 Atom AN      X      Y      Z        X      Y      Z        X      Y      Z
   1   8    -0.00  -0.02   0.02    -0.00  -0.02   0.03     0.01  -0.01  -0.02
   2   6    -0.00  -0.04   0.03     0.02   0.07  -0.04     0.00   0.04  -0.03
   3   1     0.00  -0.03   0.02     0.00  -0.01  -0.00     0.00   0.02  -0.01
   4   1     0.01  -0.01  -0.01     0.01   0.03  -0.04    -0.01   0.01  -0.01
   5   6    -0.11  -0.03   0.03    -0.05   0.12   0.01     0.06   0.06  -0.00
   6   1    -0.10  -0.09  -0.06    -0.04   0.01  -0.03     0.05   0.05   0.03
   7   1    -0.10   0.05   0.09    -0.04   0.04   0.03     0.05  -0.02  -0.04
   8   7     0.21   0.00  -0.08     0.02   0.10  -0.00    -0.11   0.03   0.05
   9   6    -0.20   0.04   0.00    -0.01  -0.09  -0.07     0.12  -0.05  -0.02
  10   1    -0.09  -0.00   0.09    -0.01  -0.03   0.01     0.06  -0.02  -0.06
  11   1    -0.08   0.01   0.02     0.01  -0.02  -0.08     0.04  -0.01  -0.03
  12   1    -0.12   0.04  -0.09    -0.01  -0.07  -0.01     0.07  -0.03   0.05
  13   6     0.12  -0.06  -0.20    -0.03  -0.09   0.03    -0.09   0.01   0.12
  14   1     0.01  -0.00  -0.05     0.00  -0.06  -0.00    -0.01  -0.01   0.03
  15   1     0.00  -0.02  -0.07    -0.05  -0.03   0.05    -0.02   0.00   0.05
  16   1     0.05  -0.04  -0.07     0.01  -0.05  -0.01    -0.03   0.01   0.04
  17   6     0.09   0.10   0.17     0.07  -0.03   0.04    -0.02  -0.07  -0.09
  18   1    -0.03   0.02   0.06    -0.00  -0.03   0.01     0.03  -0.03  -0.04
  19   1     0.08   0.06   0.10     0.01  -0.03   0.01    -0.04  -0.04  -0.06
  20   1    -0.02   0.03   0.06     0.06  -0.01   0.03     0.03  -0.02  -0.02
  21   1     0.01   0.04  -0.02     0.00   0.01   0.00     0.00   0.02  -0.02
  22   6    -0.05  -0.14  -0.01     0.00   0.00   0.00     0.05   0.13   0.01
  23   8    -0.16  -0.08   0.02     0.02   0.00  -0.00     0.15   0.08  -0.02
  24   7     0.21  -0.03  -0.04    -0.01   0.02  -0.01    -0.20   0.02   0.05
  25   1     0.07   0.08   0.01    -0.01  -0.00  -0.02    -0.06  -0.07   0.01
  26   1     0.12  -0.04  -0.08     0.01  -0.03   0.13    -0.12   0.06   0.01
  27   7    -0.02   0.17   0.05    -0.00  -0.00  -0.03     0.03  -0.16  -0.03
  28   1    -0.11   0.12   0.13     0.01  -0.01  -0.06     0.11  -0.12  -0.11
  29   1     0.11   0.15  -0.13     0.01  -0.04   0.12    -0.11  -0.13   0.10
  30   6     0.03   0.10   0.03     0.01   0.03   0.01     0.07   0.14   0.04
  31   8    -0.02   0.12  -0.01    -0.02   0.04  -0.01    -0.03   0.18  -0.05
  32   7    -0.08  -0.06  -0.08    -0.02  -0.02  -0.03    -0.10  -0.09  -0.10
  33   1    -0.09  -0.13   0.11    -0.03  -0.04   0.03    -0.18  -0.20   0.21
  34   1    -0.06  -0.00  -0.16    -0.02  -0.00  -0.04    -0.07  -0.00  -0.27
  35   7     0.08  -0.10   0.07     0.03  -0.03   0.02     0.11  -0.13   0.13
  36   1     0.05  -0.04   0.08     0.01  -0.01   0.03     0.09  -0.06   0.10
  37   1    -0.00  -0.08  -0.02     0.00  -0.02  -0.00     0.01  -0.10  -0.02
  38   6    -0.14   0.03  -0.02    -0.05   0.01  -0.01    -0.11   0.02  -0.02
  39   8    -0.16  -0.05   0.04    -0.06  -0.02   0.02    -0.13  -0.04   0.03
  40   7     0.11  -0.10   0.09     0.04  -0.04   0.03     0.07  -0.07   0.07
  41   1     0.17   0.07   0.03     0.07   0.05   0.04     0.14   0.10   0.07
  42   1     0.03  -0.16   0.08     0.01  -0.07   0.03     0.02  -0.16   0.04
  43   7     0.10   0.11  -0.13     0.05   0.04  -0.05     0.06   0.10  -0.08
  44   1     0.04   0.11  -0.08     0.02   0.07  -0.00     0.02   0.06  -0.07
  45   1     0.10   0.00   0.00     0.04  -0.00  -0.00     0.07   0.00  -0.00
  46   6    -0.01  -0.01  -0.01    -0.07   0.02   0.09     0.02  -0.05   0.06
  47   8     0.01   0.01   0.00    -0.02   0.07   0.12     0.03  -0.04   0.07
  48   7    -0.02   0.00   0.02     0.01  -0.15  -0.11    -0.10   0.04  -0.07
  49   1    -0.00  -0.02   0.01    -0.06   0.07  -0.04     0.02   0.01  -0.06
  50   1    -0.00   0.02   0.01    -0.08  -0.02  -0.02    -0.01  -0.09  -0.06
  51   7     0.01  -0.00  -0.02     0.04   0.06  -0.03     0.08   0.07  -0.03
  52   1     0.05  -0.06  -0.02    -0.17   0.48   0.12     0.16  -0.10  -0.03
  53   1    -0.07   0.08   0.03     0.38  -0.44  -0.31    -0.14   0.18   0.01
                     46                     47                     48
                        a                      a                      a 
 Frequencies --   474.9305               475.5878               477.7219
 Red. masses --     4.1817                 3.3234                 5.6096
 Frc consts  --     0.0000                 0.0000                 0.0000
 IR Inten    --     7.3980                17.4396                14.3623
 Raman Activ --     0.0000                 0.0000                 0.0000
 Depolar     --     0.0000                 0.0000                 0.0000
 Atom AN      X      Y      Z        X      Y      Z        X      Y      Z
   1   8     0.01  -0.01  -0.01    -0.00  -0.01   0.02    -0.00  -0.01  -0.00
   2   6    -0.00  -0.00   0.00     0.00   0.00   0.00     0.00  -0.01   0.00
   3   1     0.00   0.02  -0.01     0.00  -0.03   0.01     0.00  -0.01   0.01
   4   1    -0.01  -0.00   0.02     0.01   0.00  -0.02     0.00  -0.00  -0.00
   5   6     0.06  -0.04  -0.02    -0.10   0.04   0.02    -0.06  -0.00   0.01
   6   1     0.04   0.01   0.02    -0.08  -0.04  -0.05    -0.05  -0.03  -0.04
   7   1     0.04  -0.03  -0.04    -0.08   0.05   0.07    -0.05   0.03   0.04
   8   7    -0.06  -0.05   0.02     0.13   0.05  -0.04     0.09   0.01  -0.02
   9   6     0.05   0.02   0.03    -0.14  -0.02  -0.03    -0.09   0.00   0.01
  10   1     0.02   0.02  -0.02    -0.06  -0.02   0.06    -0.03  -0.01   0.04
  11   1     0.03   0.01   0.02    -0.05  -0.01  -0.02    -0.04  -0.00   0.01
  12   1     0.03   0.01   0.02    -0.08  -0.01  -0.06    -0.05   0.01  -0.03
  13   6    -0.01   0.05   0.04     0.05  -0.09  -0.11     0.03  -0.04  -0.08
  14   1    -0.00   0.02   0.01     0.00  -0.03  -0.03    -0.01  -0.01  -0.02
  15   1     0.03   0.02   0.00    -0.03  -0.03  -0.02    -0.01  -0.01  -0.03
  16   1    -0.02   0.04   0.02     0.04  -0.06  -0.05     0.02  -0.02  -0.04
  17   6    -0.06  -0.02  -0.05     0.09   0.04   0.12     0.05   0.04   0.07
  18   1     0.00   0.01  -0.01    -0.02   0.00   0.04    -0.01   0.01   0.02
  19   1    -0.02  -0.00  -0.02     0.05   0.02   0.06     0.03   0.02   0.03
  20   1    -0.02  -0.00  -0.02     0.02   0.01   0.04     0.00   0.01   0.02
  21   1     0.00   0.01  -0.02     0.00   0.02  -0.01     0.00  -0.00   0.00
  22   6    -0.01  -0.05   0.01    -0.02   0.05  -0.05     0.04   0.05   0.02
  23   8    -0.06  -0.02   0.03     0.07  -0.00  -0.08     0.06   0.05   0.02
  24   7     0.06  -0.01  -0.05    -0.03   0.01   0.12    -0.09   0.01  -0.01
  25   1     0.03   0.02   0.01    -0.03   0.01  -0.07    -0.02  -0.05   0.04
  26   1     0.04  -0.02  -0.02    -0.01  -0.01   0.08    -0.06   0.03  -0.03
  27   7    -0.00   0.04   0.02    -0.02   0.01  -0.05     0.04  -0.08  -0.00
  28   1    -0.03   0.04   0.16    -0.00  -0.02  -0.41     0.06  -0.05   0.08
  29   1     0.02   0.09  -0.22     0.02  -0.18   0.61    -0.06  -0.01  -0.14
  30   6     0.09   0.11   0.01     0.02   0.04   0.01    -0.02   0.07   0.04
  31   8    -0.02   0.17  -0.08     0.00   0.05  -0.01    -0.01   0.08   0.06
  32   7    -0.07  -0.08  -0.09    -0.04  -0.03  -0.03    -0.13  -0.03  -0.04
  33   1    -0.19  -0.18   0.23    -0.01  -0.05   0.01     0.29  -0.02  -0.36
  34   1    -0.06  -0.00  -0.25    -0.04   0.00  -0.03    -0.19   0.02   0.22
  35   7     0.10  -0.10   0.13     0.04  -0.04   0.03     0.09  -0.08  -0.03
  36   1     0.05  -0.05   0.12     0.03  -0.02   0.04     0.10  -0.03  -0.01
[...]
  44   1    -0.08   0.01   0.01    -0.02   0.00   0.00    -0.04   0.00   0.00
  45   1     0.28   0.32  -0.30     0.06   0.07  -0.07     0.12   0.13  -0.13
  46   6    -0.01  -0.01   0.01    -0.00  -0.00  -0.01    -0.00  -0.00   0.00
  47   8     0.00   0.00  -0.01    -0.00  -0.00   0.00     0.00   0.00  -0.00
  48   7    -0.08  -0.05  -0.07    -0.12  -0.08  -0.10     0.00   0.00   0.00
  49   1     0.30   0.18   0.34     0.43   0.26   0.47    -0.01  -0.01  -0.01
  50   1    -0.00   0.02  -0.07    -0.00   0.03  -0.10    -0.00  -0.00   0.00
  51   7     0.00   0.00  -0.00     0.00  -0.00   0.00     0.00   0.00  -0.00
  52   1    -0.00  -0.00  -0.00    -0.00  -0.00   0.01     0.00   0.00  -0.00
  53   1    -0.00  -0.00   0.00     0.01   0.02  -0.00    -0.00  -0.00   0.00
                    142                    143                    144
                        a                      a                      a 
 Frequencies --  3496.8418              3501.0396              3501.9883
 Red. masses --     1.4507                 1.4500                 1.4491
 Frc consts  --     0.0000                 0.0000                 0.0000
 IR Inten    --    20.6027                18.1643                18.4607
 Raman Activ --     0.0000                 0.0000                 0.0000
 Depolar     --     0.0000                 0.0000                 0.0000
 Atom AN      X      Y      Z        X      Y      Z        X      Y      Z
   1   8     0.00  -0.00  -0.00     0.00  -0.00  -0.00    -0.00   0.00   0.00
   2   6     0.00   0.00   0.00    -0.00  -0.00   0.00     0.00   0.00   0.00
   3   1     0.00  -0.00  -0.00     0.00  -0.00  -0.00     0.00   0.00   0.00
   4   1    -0.00  -0.00   0.00     0.00   0.00   0.00     0.00  -0.00  -0.00
   5   6     0.00   0.00  -0.00     0.00  -0.00  -0.00    -0.00  -0.00  -0.00
   6   1    -0.00   0.00   0.00    -0.00   0.00   0.00    -0.00  -0.00  -0.00
   7   1    -0.00  -0.00  -0.00    -0.00  -0.00  -0.00     0.00   0.00   0.00
   8   7    -0.00  -0.00   0.00    -0.00  -0.00   0.00     0.00   0.00  -0.00
   9   6     0.00   0.00  -0.00     0.00  -0.00  -0.00    -0.00  -0.00  -0.00
  10   1    -0.00  -0.00  -0.00     0.00   0.00  -0.00     0.00   0.00   0.00
  11   1     0.00  -0.00   0.00     0.00  -0.00  -0.00    -0.00  -0.00  -0.00
  12   1    -0.00   0.00   0.00    -0.00   0.00   0.00     0.00  -0.00  -0.00
  13   6     0.00   0.00   0.00     0.00   0.00   0.00    -0.00  -0.00  -0.00
  14   1     0.00   0.00   0.00     0.00  -0.00   0.00    -0.00   0.00  -0.00
  15   1     0.00  -0.00   0.00    -0.00  -0.00  -0.00    -0.00  -0.00   0.00
  16   1    -0.00  -0.00  -0.00    -0.00  -0.00  -0.00     0.00   0.00   0.00
  17   6     0.00   0.00   0.00     0.00  -0.00  -0.00    -0.00   0.00   0.00
  18   1     0.00   0.00  -0.00     0.00  -0.00   0.00    -0.00   0.00   0.00
  19   1    -0.00   0.00   0.00    -0.00   0.00   0.00     0.00  -0.00  -0.00
  20   1     0.00  -0.00  -0.00     0.00  -0.00  -0.00    -0.00  -0.00  -0.00
  21   1    -0.01   0.01   0.01    -0.00   0.00   0.00     0.00  -0.00  -0.00
  22   6    -0.00   0.00  -0.00    -0.00   0.00  -0.00     0.00   0.00  -0.00
  23   8     0.00  -0.00   0.00     0.00  -0.00   0.00    -0.00  -0.00  -0.00
  24   7     0.00  -0.00  -0.00     0.00  -0.00  -0.00    -0.01  -0.01  -0.00
  25   1    -0.00   0.00   0.00    -0.00   0.00   0.00     0.02  -0.00  -0.00
  26   1     0.00   0.00   0.00     0.00   0.00   0.00     0.03   0.03   0.01
  27   7    -0.00   0.00   0.00     0.00   0.00  -0.00     0.18   0.01  -0.05
  28   1     0.00   0.00  -0.00    -0.00  -0.00   0.00    -0.41  -0.60   0.01
  29   1     0.00  -0.00  -0.00    -0.00   0.00   0.00    -0.25   0.58   0.17
  30   6     0.00   0.00  -0.00    -0.00  -0.00   0.00     0.00  -0.00   0.00
  31   8    -0.00  -0.00  -0.00     0.00   0.00  -0.00    -0.00   0.00   0.00
  32   7    -0.08   0.13  -0.10     0.00  -0.00   0.00    -0.00   0.00  -0.00
  33   1     0.49   0.20   0.43    -0.00  -0.00  -0.00     0.00   0.00   0.00
  34   1    -0.18  -0.68  -0.05     0.00   0.00   0.00    -0.00  -0.00  -0.00
  35   7     0.00  -0.01   0.00     0.00   0.00  -0.00    -0.00  -0.00  -0.00
  36   1     0.01   0.04   0.01    -0.00  -0.00  -0.00     0.00   0.00   0.00
  37   1    -0.01   0.01  -0.01    -0.00  -0.00   0.00     0.00  -0.00   0.00
  38   6     0.00   0.00  -0.00    -0.00  -0.00   0.00     0.00   0.00  -0.00
  39   8    -0.00  -0.00   0.00     0.00  -0.00   0.00    -0.00  -0.00  -0.00
  40   7    -0.00   0.00  -0.00    -0.11  -0.11   0.09     0.00   0.00  -0.00
  41   1     0.00  -0.00   0.00    -0.30   0.45  -0.38     0.00  -0.00   0.00
  42   1     0.00   0.00   0.00     0.72  -0.02   0.05    -0.00   0.00  -0.00
  43   7     0.00  -0.00   0.00     0.01   0.00  -0.01    -0.00  -0.00   0.00
  44   1    -0.01   0.00   0.00    -0.04   0.01   0.00     0.00  -0.00  -0.00
  45   1     0.01   0.01  -0.01    -0.01  -0.01   0.01     0.00   0.00  -0.00
  46   6    -0.00   0.00  -0.00    -0.00   0.00  -0.00     0.00   0.00   0.00
  47   8     0.00  -0.00   0.00     0.00  -0.00   0.00    -0.00   0.00  -0.00
  48   7     0.00   0.00   0.00     0.00   0.00  -0.00    -0.00  -0.00  -0.00
  49   1    -0.00   0.00  -0.00    -0.01  -0.00  -0.01     0.00   0.00   0.00
  50   1    -0.00   0.00   0.00     0.00  -0.01   0.02     0.00   0.00  -0.00
  51   7     0.00   0.00  -0.00     0.00  -0.00   0.00     0.00   0.00   0.00
  52   1    -0.00   0.00   0.00     0.00   0.00  -0.00     0.00   0.00  -0.01
  53   1    -0.00  -0.00   0.00    -0.00  -0.00   0.00    -0.00  -0.00   0.00
                    145                    146                    147
                        a                      a                      a 
 Frequencies --  3503.4311              3532.4763              3533.9204
 Red. masses --     1.4527                 1.9133                 1.9273
 Frc consts  --     0.0000                 0.0000                 0.0000
 IR Inten    --    17.4331                14.8409                11.5934
 Raman Activ --     0.0000                 0.0000                 0.0000
 Depolar     --     0.0000                 0.0000                 0.0000
 Atom AN      X      Y      Z        X      Y      Z        X      Y      Z
   1   8    -0.00  -0.00  -0.00     0.00   0.00  -0.00    -0.00   0.00  -0.00
   2   6    -0.00  -0.00   0.00    -0.00  -0.00  -0.00     0.00  -0.00  -0.00
   3   1     0.00  -0.00  -0.00     0.00   0.00   0.00    -0.00   0.00   0.00
   4   1    -0.00   0.00   0.00     0.00   0.00  -0.00     0.00  -0.00  -0.00
   5   6    -0.00  -0.00  -0.00     0.00  -0.00  -0.00    -0.00  -0.00  -0.00
   6   1     0.00   0.00   0.00    -0.00  -0.00   0.00    -0.00  -0.00  -0.00
   7   1    -0.00   0.00   0.00     0.00   0.00   0.00     0.00   0.00   0.00
   8   7    -0.00   0.00   0.00     0.00   0.00  -0.00    -0.00  -0.00  -0.00
   9   6    -0.00   0.00  -0.00     0.00  -0.00  -0.00    -0.00   0.00   0.00
  10   1    -0.00   0.00   0.00     0.00  -0.00   0.00     0.00   0.00  -0.00
  11   1    -0.00  -0.00  -0.00    -0.00   0.00  -0.00    -0.00   0.00  -0.00
  12   1     0.00   0.00   0.00    -0.00   0.00   0.00     0.00  -0.00  -0.00
  13   6     0.00   0.00   0.00     0.00   0.00  -0.00     0.00   0.00  -0.00
  14   1     0.00  -0.00  -0.00     0.00  -0.00  -0.00    -0.00  -0.00   0.00
  15   1     0.00  -0.00   0.00    -0.00   0.00  -0.00    -0.00   0.00   0.00
  16   1    -0.00  -0.00  -0.00    -0.00  -0.00  -0.00    -0.00   0.00   0.00
  17   6     0.00   0.00  -0.00     0.00  -0.00  -0.00     0.00  -0.00  -0.00
  18   1    -0.00  -0.00   0.00     0.00  -0.00   0.00     0.00  -0.00  -0.00
  19   1     0.00   0.00  -0.00    -0.00   0.00   0.00    -0.00  -0.00   0.00
  20   1    -0.00  -0.00   0.00     0.00   0.00   0.00    -0.00  -0.00  -0.00
  21   1    -0.00   0.00   0.00    -0.00   0.00   0.00     0.00  -0.00  -0.00
  22   6    -0.00  -0.00   0.00     0.00   0.00   0.00    -0.01  -0.00  -0.00
  23   8     0.00   0.00  -0.00    -0.00  -0.00  -0.00     0.00   0.00   0.00
  24   7     0.00  -0.00  -0.00     0.01   0.01   0.00    -0.17  -0.19  -0.02
  25   1    -0.01   0.00   0.00    -0.00   0.00   0.00     0.11  -0.03  -0.03
  26   1     0.00   0.00   0.00    -0.03  -0.04  -0.01     0.55   0.72   0.12
  27   7    -0.00   0.00   0.00     0.00  -0.00  -0.00    -0.01   0.02   0.01
  28   1     0.00   0.01  -0.00     0.00   0.00  -0.00    -0.01  -0.01   0.00
  29   1     0.00  -0.01  -0.00    -0.00   0.00   0.00     0.03  -0.07  -0.02
  30   6     0.00  -0.00   0.00    -0.00  -0.00  -0.00    -0.00   0.00  -0.00
  31   8    -0.00   0.00  -0.00     0.00   0.00  -0.00     0.00  -0.00   0.00
  32   7     0.00   0.00   0.00     0.00   0.00   0.00    -0.01  -0.00  -0.00
  33   1    -0.00  -0.00  -0.00    -0.00  -0.00  -0.00     0.02   0.01   0.01
  34   1     0.00   0.00   0.00    -0.00  -0.00  -0.00     0.00   0.01   0.00
  35   7    -0.00  -0.00  -0.00    -0.00  -0.00  -0.00     0.01   0.07   0.01
  36   1     0.00   0.01   0.00     0.00   0.01   0.00    -0.04  -0.25  -0.04
  37   1     0.01  -0.01   0.00    -0.00   0.00  -0.00     0.02  -0.01   0.01
  38   6     0.00   0.00   0.00     0.00  -0.00  -0.00     0.00  -0.00   0.00
  39   8    -0.00  -0.00  -0.00    -0.00  -0.00  -0.00    -0.00   0.00   0.00
  40   7     0.00   0.00  -0.00    -0.00  -0.00   0.00    -0.00   0.00  -0.00
  41   1     0.00  -0.00   0.00    -0.00   0.00  -0.00     0.00  -0.00   0.00
  42   1    -0.00   0.00  -0.00     0.02  -0.00   0.00     0.00  -0.00   0.00
  43   7    -0.00  -0.00   0.00     0.00   0.00  -0.00    -0.00   0.00  -0.00
  44   1     0.00  -0.00   0.00    -0.01   0.00   0.00     0.00  -0.00  -0.00
  45   1     0.00   0.00  -0.00    -0.00  -0.00   0.00    -0.00  -0.00   0.00
  46   6     0.00   0.00   0.00     0.00  -0.00   0.01     0.00  -0.00   0.00
  47   8     0.00   0.00  -0.00    -0.00   0.00  -0.00     0.00   0.00  -0.00
  48   7    -0.01   0.00  -0.02     0.02  -0.09   0.25     0.00  -0.00   0.01
  49   1     0.01   0.01   0.01    -0.07  -0.05  -0.06    -0.01  -0.00  -0.01
  50   1     0.00  -0.02   0.05     0.00   0.39  -0.87     0.00   0.02  -0.05
  51   7     0.10   0.06   0.14     0.02   0.02  -0.01     0.00   0.00  -0.00
  52   1     0.08   0.24  -0.69    -0.00  -0.00   0.01    -0.00  -0.00   0.00
  53   1    -0.45  -0.45   0.15    -0.06  -0.06   0.02    -0.00  -0.00   0.00
                    148                    149                    150
                        a                      a                      a 
 Frequencies --  3534.9200              3535.6380              3561.9417
 Red. masses --     1.9214                 1.9220                 2.1799
 Frc consts  --     0.0000                 0.0000                 0.0000
 IR Inten    --    17.6586                14.2395                14.4309
 Raman Activ --     0.0000                 0.0000                 0.0000
 Depolar     --     0.0000                 0.0000                 0.0000
 Atom AN      X      Y      Z        X      Y      Z        X      Y      Z
   1   8    -0.00   0.00   0.00     0.00  -0.00  -0.00    -0.00   0.00   0.00
   2   6    -0.00   0.00  -0.00     0.00   0.00  -0.00     0.00  -0.00  -0.00
   3   1     0.00  -0.00  -0.00    -0.00   0.00   0.00    -0.00   0.00   0.00
   4   1    -0.00  -0.00   0.00    -0.00   0.00   0.00     0.00   0.00   0.00
   5   6    -0.00   0.00   0.00    -0.00   0.00  -0.00    -0.00  -0.00  -0.00
   6   1     0.00   0.00  -0.00     0.00   0.00  -0.00     0.00  -0.00   0.00
   7   1     0.00  -0.00  -0.00    -0.00   0.00   0.00    -0.00   0.00   0.00
   8   7     0.00  -0.00  -0.00     0.00  -0.00   0.00    -0.00   0.00   0.00
   9   6    -0.00   0.00   0.00     0.00  -0.00  -0.00    -0.00  -0.00   0.00
  10   1     0.00  -0.00  -0.00     0.00   0.00   0.00    -0.00   0.00   0.00
  11   1    -0.00  -0.00  -0.00    -0.00  -0.00   0.00    -0.00   0.00  -0.00
  12   1    -0.00  -0.00  -0.00    -0.00  -0.00   0.00     0.00  -0.00   0.00
  13   6     0.00   0.00  -0.00     0.00  -0.00  -0.00     0.00  -0.00   0.00
  14   1    -0.00  -0.00   0.00     0.00   0.00   0.00    -0.00  -0.00  -0.00
  15   1     0.00  -0.00  -0.00    -0.00  -0.00   0.00    -0.00   0.00  -0.00
  16   1    -0.00  -0.00  -0.00     0.00   0.00  -0.00     0.00   0.00   0.00
  17   6    -0.00   0.00   0.00     0.00  -0.00   0.00     0.00  -0.00  -0.00
  18   1    -0.00   0.00   0.00    -0.00   0.00  -0.00    -0.00  -0.00  -0.00
  19   1     0.00  -0.00  -0.00     0.00  -0.00  -0.00    -0.00  -0.00   0.00
  20   1     0.00  -0.00  -0.00    -0.00   0.00   0.00    -0.00   0.00  -0.00
  21   1     0.00  -0.00  -0.00    -0.01   0.00   0.00     0.00  -0.00  -0.00
  22   6    -0.00  -0.00  -0.00     0.00   0.00   0.00     0.00  -0.00   0.00
  23   8     0.00   0.00   0.00    -0.00  -0.00  -0.00    -0.00  -0.00  -0.00
  24   7    -0.05  -0.05  -0.01     0.01   0.01   0.00     0.00   0.00  -0.00
  25   1     0.04  -0.01  -0.01    -0.00   0.00   0.00    -0.00   0.00   0.00
  26   1     0.15   0.20   0.03    -0.02  -0.02  -0.00    -0.00  -0.00  -0.00
  27   7    -0.00   0.01   0.00     0.00  -0.00  -0.00    -0.00  -0.00  -0.00
  28   1    -0.00  -0.00   0.00     0.00   0.00  -0.00     0.00   0.00  -0.00
  29   1     0.01  -0.02  -0.01    -0.00   0.00   0.00    -0.00   0.00   0.00
  30   6     0.00  -0.01   0.00    -0.00  -0.00  -0.00     0.01   0.01   0.00
  31   8    -0.00   0.00  -0.00     0.00   0.00   0.00    -0.00  -0.00  -0.00
  32   7     0.02   0.02   0.02    -0.00   0.00  -0.00     0.17   0.22   0.12
  33   1    -0.07  -0.02  -0.06     0.01   0.00   0.01    -0.49  -0.17  -0.44
  34   1    -0.01  -0.04  -0.00    -0.00  -0.01  -0.00    -0.15  -0.64  -0.03
  35   7    -0.02  -0.25  -0.03     0.00   0.02   0.00     0.00   0.02   0.00
  36   1     0.14   0.89   0.16    -0.01  -0.09  -0.02    -0.02  -0.09  -0.02
  37   1    -0.07   0.06  -0.06     0.00  -0.00   0.00     0.01  -0.01   0.01
  38   6    -0.00  -0.00   0.00    -0.01  -0.00   0.01    -0.00   0.00  -0.00
  39   8     0.00   0.00  -0.00     0.00   0.00  -0.00    -0.00   0.00  -0.00
  40   7     0.00  -0.00   0.00     0.02  -0.02   0.01    -0.00   0.00  -0.00
  41   1    -0.00   0.01  -0.01    -0.04   0.06  -0.05     0.00  -0.01   0.01
  42   1    -0.00  -0.00  -0.00    -0.02  -0.00  -0.00     0.01  -0.00   0.00
  43   7    -0.03   0.00   0.00    -0.26   0.02   0.03     0.00   0.00  -0.00
  44   1     0.09  -0.01  -0.00     0.94  -0.13  -0.04    -0.01   0.00   0.00
  45   1     0.00   0.01  -0.01     0.04   0.08  -0.07    -0.00  -0.00   0.00
  46   6    -0.00  -0.00   0.00     0.00   0.00  -0.00     0.00   0.00  -0.00
  47   8     0.00   0.00  -0.00     0.00  -0.00   0.00     0.00  -0.00   0.00
  48   7     0.00   0.00   0.00    -0.00  -0.00   0.00    -0.00  -0.00  -0.00
  49   1    -0.00  -0.00  -0.00    -0.00  -0.00   0.00     0.00   0.00   0.00
  50   1     0.00   0.00   0.00    -0.00   0.00  -0.01    -0.00  -0.00   0.00
  51   7     0.00   0.00  -0.00     0.00  -0.00   0.00    -0.00  -0.00   0.00
  52   1    -0.00  -0.00   0.01     0.00   0.00  -0.00     0.00   0.00  -0.01
  53   1    -0.00  -0.00  -0.00    -0.00  -0.00   0.00     0.00   0.00  -0.00
                    151                    152                    153
                        a                      a                      a 
 Frequencies --  3567.0125              3568.4518              3569.2253
 Red. masses --     2.1812                 2.1817                 2.1799
 Frc consts  --     0.0000                 0.0000                 0.0000
 IR Inten    --    11.7373                11.0738                12.8816
 Raman Activ --     0.0000                 0.0000                 0.0000
 Depolar     --     0.0000                 0.0000                 0.0000
 Atom AN      X      Y      Z        X      Y      Z        X      Y      Z
   1   8    -0.00   0.00   0.00    -0.00   0.00   0.00    -0.00  -0.00  -0.00
   2   6     0.00  -0.00   0.00     0.00  -0.00   0.00     0.00   0.00   0.00
   3   1    -0.00   0.00  -0.00    -0.00   0.00   0.00     0.00  -0.00  -0.00
   4   1     0.00   0.00  -0.00    -0.00  -0.00  -0.00     0.00  -0.00   0.00
   5   6     0.00   0.00  -0.00    -0.00  -0.00  -0.00    -0.00   0.00   0.00
   6   1    -0.00  -0.00   0.00    -0.00  -0.00  -0.00     0.00   0.00  -0.00
   7   1    -0.00  -0.00  -0.00     0.00  -0.00   0.00    -0.00   0.00   0.00
   8   7    -0.00  -0.00   0.00     0.00   0.00   0.00    -0.00  -0.00  -0.00
   9   6     0.00  -0.00  -0.00    -0.00  -0.00  -0.00    -0.00   0.00   0.00
  10   1     0.00  -0.00  -0.00     0.00   0.00  -0.00     0.00   0.00  -0.00
  11   1     0.00   0.00  -0.00    -0.00   0.00  -0.00    -0.00  -0.00   0.00
  12   1    -0.00   0.00   0.00    -0.00  -0.00  -0.00     0.00  -0.00  -0.00
  13   6     0.00   0.00   0.00    -0.00  -0.00  -0.00     0.00   0.00   0.00
  14   1     0.00  -0.00  -0.00    -0.00  -0.00  -0.00     0.00   0.00   0.00
  15   1     0.00   0.00  -0.00    -0.00  -0.00   0.00     0.00  -0.00  -0.00
  16   1    -0.00  -0.00  -0.00     0.00   0.00   0.00    -0.00  -0.00  -0.00
  17   6     0.00  -0.00  -0.00    -0.00   0.00  -0.00    -0.00   0.00   0.00
  18   1     0.00  -0.00  -0.00    -0.00  -0.00   0.00    -0.00   0.00   0.00
  19   1    -0.00   0.00   0.00     0.00  -0.00  -0.00     0.00  -0.00  -0.00
  20   1     0.00   0.00  -0.00    -0.00  -0.00   0.00    -0.00  -0.00  -0.00
  21   1     0.00  -0.00  -0.00     0.00  -0.00  -0.00    -0.00   0.00   0.00
  22   6    -0.00   0.00   0.00    -0.00  -0.01  -0.00    -0.00   0.00   0.00
  23   8     0.00  -0.00   0.00    -0.00   0.00   0.00     0.00   0.00  -0.00
  24   7     0.00   0.00  -0.00    -0.01  -0.01  -0.00     0.00   0.00  -0.00
  25   1    -0.00   0.00   0.00     0.01  -0.00  -0.00    -0.01   0.00   0.00
  26   1    -0.00  -0.00  -0.00     0.04   0.06   0.01    -0.00  -0.01  -0.00
  27   7     0.00   0.00   0.00    -0.02  -0.30  -0.05     0.00   0.01   0.00
  28   1    -0.01  -0.01   0.00     0.38   0.51  -0.02    -0.01  -0.01   0.00
  29   1     0.00  -0.01  -0.00    -0.30   0.61   0.19     0.01  -0.02  -0.01
  30   6     0.00   0.00   0.00    -0.00  -0.00  -0.00     0.00   0.00   0.00
  31   8    -0.00  -0.00  -0.00    -0.00   0.00   0.00    -0.00  -0.00  -0.00
  32   7     0.00   0.00   0.00    -0.00  -0.00  -0.00     0.00   0.00   0.00
  33   1    -0.01  -0.00  -0.01     0.00   0.00   0.00    -0.00  -0.00  -0.00
  34   1    -0.00  -0.01  -0.00     0.00   0.00   0.00    -0.00  -0.01  -0.00
  35   7    -0.00   0.00  -0.00     0.00  -0.00   0.00    -0.00   0.00  -0.00
  36   1    -0.00  -0.00  -0.00     0.00   0.00   0.00    -0.00  -0.01  -0.00
  37   1     0.00  -0.00   0.00    -0.00   0.00  -0.00     0.00  -0.00   0.00
  38   6     0.01  -0.01   0.00     0.00  -0.00   0.00    -0.00   0.00  -0.00
  39   8    -0.00   0.00  -0.00    -0.00   0.00   0.00     0.00   0.00   0.00
  40   7     0.25  -0.13   0.11     0.00  -0.00   0.00    -0.01   0.00  -0.00
  41   1    -0.29   0.49  -0.41    -0.00   0.01  -0.01     0.01  -0.02   0.01
  42   1    -0.64   0.00  -0.03    -0.01   0.00  -0.00     0.02   0.00   0.00
  43   7     0.02  -0.00  -0.00     0.00  -0.00  -0.00    -0.00  -0.00   0.00
  44   1    -0.08   0.01   0.00    -0.00   0.00   0.00     0.00  -0.00  -0.00
  45   1    -0.00  -0.01   0.01    -0.00  -0.00   0.00     0.00   0.00  -0.00
  46   6     0.00   0.00  -0.00     0.00   0.00  -0.00     0.01   0.01  -0.01
  47   8    -0.00   0.00   0.00     0.00   0.00  -0.00    -0.00  -0.00   0.00
  48   7     0.00  -0.00   0.00     0.00   0.00  -0.00    -0.00   0.01  -0.02
  49   1    -0.00  -0.00  -0.00    -0.00  -0.00  -0.00     0.01   0.00   0.01
  50   1    -0.00   0.00  -0.01    -0.00  -0.00   0.00    -0.00  -0.03   0.06
  51   7     0.00   0.01  -0.01     0.00   0.01  -0.01     0.14   0.18  -0.19
  52   1    -0.00  -0.01   0.02    -0.00  -0.01   0.02    -0.05  -0.19   0.60
  53   1    -0.02  -0.02   0.00    -0.02  -0.02   0.00    -0.49  -0.49   0.13
