 Entering Gaussian System
 *********************************************
 Gaussian 98:
 frequency output generated by the xtb code
 *********************************************
                         Standard orientation:
 --------------------------------------------------------------------
  Center     Atomic     Atomic              Coordinates (Angstroms)
  Number     Number      Type              X           Y           Z
 --------------------------------------------------------------------
    1          8             0       -0.851322    0.476842   -2.548060
    2          6             0       -0.165330   -0.707569   -2.821497
    3          1             0       -0.769505   -1.258586   -3.547542
    4          1             0        0.804493   -0.496104   -3.292988
    5          6             0        0.136453   -1.572498   -1.586017
    6          1             0        0.738126   -1.002872   -0.870716
    7          1             0        0.714624   -2.435222   -1.922898
    8          7             0       -1.043650   -2.074991   -0.832962
    9          6             0       -1.706799   -0.971023   -0.117132
   10          1             0       -0.997044   -0.535235    0.583917
   11          1             0       -2.562231   -1.374061    0.421171
   12          1             0       -2.031901   -0.214687   -0.827532
   13          6             0       -0.569292   -3.041854    0.173216
   14          1             0        0.160138   -2.552843    0.816936
   15          1             0       -0.109723   -3.899265   -0.313662
   16          1             0       -1.421725   -3.375854    0.762118
   17          6             0       -2.025144   -2.736483   -1.704898
   18          1             0       -2.482509   -2.011768   -2.373625
   19          1             0       -2.800021   -3.171692   -1.073739
   20          1             0       -1.544540   -3.519621   -2.288210
   21          1             0       -0.242574    1.077511   -2.052070
   22          6             0        4.005464    2.603829    0.356826
   23          8             0        3.253663    3.428654    0.874295
   24          7             0        5.274165    2.429612    0.804287
   25          1             0        5.631103    3.105659    1.457095
   26          1             0        5.940057    1.880003    0.291836
   27          7             0        3.607654    1.810681   -0.657177
   28          1             0        4.195429    1.079262   -1.011695
   29          1             0        2.631445    1.836025   -0.938658
   30          6             0        0.552703    3.370433   -1.457568
   31          8             0        0.814552    2.163418   -1.296117
   32          7             0       -0.408793    3.749059   -2.324420
   33          1             0       -0.908312    3.043909   -2.839027
   34          1             0       -0.638852    4.713552   -2.477346
   35          7             0        1.199181    4.317814   -0.777292
   36          1             0        1.000032    5.291680   -0.914266
   37          1             0        1.943284    4.051277   -0.121624
   38          6             0       -4.564572   -3.733645    1.577109
   39          8             0       -3.631800   -3.333724    0.893984
   40          7             0       -4.761520   -3.307687    2.847514
   41          1             0       -4.165751   -2.586637    3.212362
   42          1             0       -5.569710   -3.570819    3.380462
   43          7             0       -5.468731   -4.628686    1.113181
   44          1             0       -6.180171   -5.022160    1.701096
   45          1             0       -5.320675   -5.040530    0.209608
   46          6             0        1.563291    0.304533    1.824271
   47          8             0        1.165386   -0.690054    1.225046
   48          7             0        2.434796    0.213989    2.860810
   49          1             0        2.635284   -0.695257    3.238146
   50          1             0        2.649291    1.017442    3.423463
   51          7             0        1.138499    1.553094    1.514940
   52          1             0        1.682025    2.343619    1.830869
   53          1             0        0.755774    1.669438    0.583558
 --------------------------------------------------------------------
     1 basis functions        1 primitive gaussians
     1 alpha electrons        1 beta electrons

 Harmonic frequencies (cm**-1), IR intensities (km*mol⁻¹),
 Raman scattering activities (A**4/amu), Raman depolarization ratios,
 reduced masses (AMU), force constants (mDyne/A) and normal coordinates:
                      1                      2                      3
                        a                      a                      a 
 Frequencies --    -7.5959                 6.1206                13.4613
 Red. masses --    11.1736                12.1023                12.5505
 Frc consts  --     0.0000                 0.0000                 0.0000
 IR Inten    --     0.0559                 1.1078                 1.1102
 Raman Activ --     0.0000                 0.0000                 0.0000
 Depolar     --     0.0000                 0.0000                 0.0000
 Atom AN      X      Y      Z        X      Y      Z        X      Y      Z
   1   8    -0.04   0.04   0.02     0.10  -0.08   0.04     0.07  -0.08  -0.13
   2   6    -0.04   0.04  -0.01     0.07  -0.08   0.06     0.06  -0.07  -0.11
   3   1    -0.02   0.01  -0.00     0.02  -0.02   0.01     0.02  -0.02  -0.03
   4   1    -0.01   0.01  -0.01     0.02  -0.03   0.02     0.02  -0.02  -0.03
   5   6    -0.02   0.02  -0.03     0.01  -0.09   0.07     0.06  -0.07  -0.11
   6   1    -0.00   0.00  -0.01     0.00  -0.03   0.02     0.02  -0.03  -0.04
   7   1    -0.01   0.01  -0.02     0.00  -0.03   0.02     0.01  -0.03  -0.04
   8   7     0.00   0.01  -0.01    -0.02  -0.06   0.04     0.06  -0.05  -0.10
   9   6     0.01   0.00   0.01    -0.01  -0.04   0.02     0.11  -0.03  -0.07
  10   1     0.01  -0.00   0.00    -0.00  -0.02   0.01     0.04  -0.01  -0.03
  11   1     0.01  -0.00   0.01    -0.01  -0.01  -0.00     0.03  -0.00  -0.01
  12   1    -0.00   0.00   0.01     0.01  -0.01   0.00     0.03  -0.01  -0.02
  13   6     0.02   0.00  -0.03    -0.07  -0.07   0.05     0.05  -0.06  -0.10
  14   1     0.01  -0.00  -0.01    -0.02  -0.03   0.02     0.02  -0.03  -0.04
  15   1     0.00   0.00  -0.01    -0.02  -0.02   0.02     0.00  -0.02  -0.03
  16   1     0.01  -0.00  -0.00    -0.03  -0.02   0.01     0.02  -0.01  -0.02
  17   6    -0.01   0.02  -0.00    -0.01  -0.03   0.01     0.02  -0.01  -0.07
  18   1    -0.01   0.01   0.00     0.01  -0.01  -0.00     0.01   0.00  -0.02
  19   1    -0.00   0.00   0.00    -0.01  -0.00  -0.00     0.00   0.01  -0.02
  20   1    -0.01   0.01  -0.01    -0.01  -0.01   0.01    -0.01  -0.01  -0.02
  21   1    -0.01   0.01   0.00     0.03  -0.02   0.01     0.01  -0.02  -0.02
  22   6    -0.01  -0.04   0.01     0.11   0.22  -0.12    -0.12   0.05   0.13
  23   8     0.01  -0.03   0.01     0.04   0.09   0.00    -0.20   0.00   0.14
  24   7    -0.02  -0.07   0.01     0.19   0.42  -0.26    -0.14   0.09   0.18
  25   1    -0.00  -0.02   0.00     0.04   0.11  -0.06    -0.05   0.03   0.06
  26   1    -0.01  -0.02   0.00     0.06   0.14  -0.09    -0.02   0.04   0.05
  27   7    -0.02  -0.03   0.00     0.15   0.24  -0.14    -0.05   0.07   0.10
  28   1    -0.01  -0.01   0.00     0.07   0.11  -0.08    -0.00   0.03   0.03
  29   1    -0.01  -0.00   0.00     0.04   0.04  -0.02    -0.01   0.01   0.02
  30   6    -0.01   0.01   0.03    -0.04  -0.04   0.08    -0.10  -0.07   0.04
  31   8    -0.02   0.01   0.03     0.09  -0.02  -0.00    -0.05  -0.08   0.02
  32   7    -0.01   0.03   0.03    -0.11  -0.08   0.14    -0.10  -0.10   0.02
  33   1    -0.01   0.01   0.01    -0.01  -0.03   0.03    -0.01  -0.03  -0.01
  34   1     0.00   0.01   0.01    -0.05  -0.02   0.05    -0.04  -0.03   0.01
  35   7     0.01   0.00   0.03    -0.11  -0.02   0.11    -0.19  -0.07   0.10
  36   1     0.01   0.00   0.01    -0.06  -0.01   0.05    -0.06  -0.02   0.03
  37   1     0.00  -0.00   0.01    -0.02   0.00   0.02    -0.05  -0.01   0.03
  38   6     0.01   0.01   0.00    -0.13   0.03  -0.06     0.05   0.22   0.06
  39   8     0.04   0.00   0.03    -0.12   0.01  -0.04     0.07   0.13  -0.00
  40   7    -0.36   0.47  -0.21    -0.21   0.10  -0.10     0.16   0.34   0.05
  41   1    -0.17   0.21  -0.10    -0.06   0.03  -0.03     0.07   0.08  -0.00
  42   1    -0.10   0.12  -0.07    -0.06   0.03  -0.03     0.05   0.11   0.03
  43   7     0.36  -0.43   0.18    -0.12   0.01  -0.07    -0.05   0.30   0.16
  44   1     0.09  -0.10   0.05    -0.04   0.01  -0.02    -0.02   0.11   0.06
  45   1     0.17  -0.20   0.10    -0.02  -0.01  -0.01    -0.04   0.06   0.05
  46   6     0.03  -0.01  -0.02     0.04  -0.12   0.04     0.07  -0.12  -0.08
  47   8     0.05  -0.01  -0.05    -0.07  -0.13   0.11     0.18  -0.14  -0.15
  48   7     0.04  -0.03  -0.03     0.01  -0.17   0.07     0.11  -0.10  -0.11
  49   1     0.02  -0.01  -0.02    -0.03  -0.05   0.04     0.06  -0.03  -0.05
  50   1     0.01  -0.01  -0.00     0.02  -0.04   0.01     0.01  -0.03  -0.02
  51   7    -0.00  -0.02   0.02     0.20  -0.10  -0.04    -0.07  -0.16   0.01
  52   1    -0.00  -0.00   0.01     0.07  -0.04  -0.02    -0.04  -0.03   0.01
  53   1    -0.00   0.00   0.01     0.05  -0.03  -0.01    -0.02  -0.04   0.00
                      4                      5                      6
                        a                      a                      a 
 Frequencies --    19.2151                24.8283                34.6212
 Red. masses --    12.1443                12.1965                12.2409
 Frc consts  --     0.0000                 0.0000                 0.0000
 IR Inten    --     0.7257                 1.1677                 1.4528
 Raman Activ --     0.0000                 0.0000                 0.0000
 Depolar     --     0.0000                 0.0000                 0.0000
 Atom AN      X      Y      Z        X      Y      Z        X      Y      Z
   1   8     0.03   0.09  -0.02     0.06  -0.03  -0.07    -0.21   0.09   0.28
   2   6    -0.07   0.03  -0.06     0.13   0.02  -0.01    -0.19   0.11   0.08
   3   1    -0.04   0.03  -0.02     0.06  -0.01  -0.02    -0.07   0.05   0.03
   4   1    -0.02  -0.01  -0.02     0.05   0.02   0.02    -0.07   0.05   0.00
   5   6    -0.11  -0.01  -0.08     0.09   0.03   0.01    -0.05   0.01  -0.02
   6   1    -0.03  -0.02  -0.02     0.00   0.02   0.02    -0.02   0.00  -0.00
   7   1    -0.04  -0.01  -0.03     0.05   0.02   0.02     0.00   0.03  -0.04
   8   7    -0.13   0.00  -0.10     0.07  -0.03  -0.07     0.04  -0.16  -0.00
   9   6    -0.10   0.01  -0.09    -0.03  -0.05  -0.11    -0.05  -0.26   0.08
  10   1    -0.03  -0.00  -0.02    -0.03  -0.01  -0.02    -0.02  -0.07   0.02
  11   1    -0.03   0.01  -0.03    -0.01  -0.03  -0.05     0.00  -0.11   0.02
  12   1    -0.02   0.01  -0.03    -0.01  -0.02  -0.04    -0.04  -0.07   0.04
  13   6    -0.14  -0.01  -0.10     0.04  -0.01  -0.04     0.18  -0.15  -0.07
  14   1    -0.04  -0.01  -0.03    -0.01   0.01   0.00     0.04  -0.03  -0.02
  15   1    -0.04  -0.00  -0.03     0.03   0.00  -0.00     0.07  -0.02  -0.04
  16   1    -0.04  -0.00  -0.03     0.00  -0.01  -0.03     0.07  -0.08  -0.02
  17   6    -0.13   0.03  -0.11     0.15  -0.07  -0.14     0.07  -0.22   0.01
  18   1    -0.03   0.01  -0.03     0.05  -0.02  -0.05    -0.01  -0.07   0.02
  19   1    -0.04   0.01  -0.03     0.04  -0.03  -0.06     0.04  -0.10   0.00
  20   1    -0.04   0.01  -0.03     0.06  -0.01  -0.03     0.04  -0.04  -0.02
  21   1     0.02   0.01  -0.01    -0.01   0.00  -0.00    -0.04   0.02   0.05
  22   6     0.07   0.10   0.10     0.01  -0.10  -0.13     0.02   0.04   0.04
  23   8    -0.01   0.02   0.13     0.09  -0.08  -0.10     0.01   0.04   0.05
  24   7     0.07   0.19   0.14     0.04  -0.15  -0.23     0.02   0.05   0.05
  25   1    -0.00   0.05   0.05     0.03  -0.05  -0.07     0.00   0.01   0.02
  26   1     0.04   0.07   0.04    -0.00  -0.05  -0.07     0.01   0.02   0.01
  27   7     0.17   0.12   0.06    -0.08  -0.10  -0.11     0.04   0.06   0.03
  28   1     0.07   0.06   0.01    -0.03  -0.03  -0.04     0.01   0.02   0.00
  29   1     0.05   0.02   0.00    -0.03  -0.01  -0.01     0.01   0.02   0.00
  30   6     0.14   0.01  -0.08    -0.07   0.02   0.10     0.07   0.07  -0.04
  31   8     0.19   0.01  -0.11    -0.10   0.02   0.07     0.05   0.08  -0.03
  32   7     0.20   0.01  -0.13    -0.13   0.06   0.17     0.10   0.10  -0.06
  33   1     0.06   0.00  -0.04    -0.04   0.02   0.04     0.01   0.03  -0.00
  34   1     0.04   0.00  -0.03    -0.03   0.02   0.05     0.03   0.03  -0.01
  35   7     0.10   0.01  -0.02    -0.03   0.00   0.09     0.11   0.07  -0.07
  36   1     0.02   0.00  -0.00    -0.00   0.00   0.03     0.04   0.02  -0.02
  37   1     0.01   0.00   0.01     0.00  -0.01   0.01     0.02   0.02  -0.01
  38   6     0.07  -0.07   0.12     0.09   0.07  -0.02    -0.01  -0.02  -0.02
  39   8    -0.09  -0.01  -0.05     0.05  -0.06  -0.19     0.17  -0.41   0.01
  40   7     0.25  -0.03   0.15     0.27   0.23  -0.05    -0.03   0.23  -0.11
  41   1     0.06   0.02  -0.00     0.10   0.06  -0.05     0.05   0.01  -0.03
  42   1     0.09  -0.02   0.08     0.09   0.09   0.02    -0.03   0.12  -0.03
  43   7     0.09  -0.19   0.33     0.00   0.07   0.18    -0.24   0.18   0.01
  44   1     0.06  -0.06   0.13     0.01   0.05   0.08    -0.10   0.12   0.00
  45   1    -0.01  -0.06   0.09    -0.04  -0.01   0.06    -0.07  -0.00   0.03
  46   6    -0.13  -0.07  -0.02    -0.16   0.04   0.15    -0.03   0.02  -0.05
  47   8    -0.19  -0.07  -0.03    -0.23   0.06   0.17    -0.07   0.02  -0.03
  48   7    -0.25  -0.12   0.06    -0.28  -0.01   0.25     0.00   0.02  -0.08
  49   1    -0.10  -0.03   0.03    -0.11  -0.01   0.08    -0.00   0.01  -0.02
  50   1    -0.06  -0.03   0.01    -0.07  -0.00   0.06     0.01   0.01  -0.02
  51   7    -0.01  -0.05  -0.11    -0.01   0.07   0.07    -0.01   0.02  -0.05
  52   1     0.01  -0.02  -0.02     0.01   0.01   0.02     0.00   0.00  -0.02
  53   1     0.02  -0.01  -0.04     0.01   0.02   0.01    -0.01   0.01  -0.01
                      7                      8                      9
                        a                      a                      a 
 Frequencies --    40.7097                45.9025                54.0192
 Red. masses --    11.9619                12.3200                12.6832
 Frc consts  --     0.0000                 0.0000                 0.0000
 IR Inten    --     5.2514                 2.8126                10.4960
 Raman Activ --     0.0000                 0.0000                 0.0000
 Depolar     --     0.0000                 0.0000                 0.0000
 Atom AN      X      Y      Z        X      Y      Z        X      Y      Z
   1   8     0.12  -0.07  -0.02     0.12  -0.07   0.00     0.03   0.06   0.01
   2   6     0.14  -0.06   0.07     0.06  -0.09   0.02    -0.04   0.02  -0.03
   3   1     0.06  -0.02   0.01     0.01  -0.02   0.01    -0.03   0.02  -0.00
   4   1     0.05  -0.02   0.05     0.02  -0.04   0.01    -0.01  -0.01  -0.02
   5   6     0.03  -0.04   0.12     0.03  -0.09   0.03    -0.04   0.00  -0.04
   6   1    -0.01  -0.01   0.05     0.01  -0.03   0.01    -0.01   0.00  -0.01
   7   1     0.02  -0.01   0.05     0.00  -0.03   0.01    -0.01   0.00  -0.01
   8   7    -0.05  -0.03   0.01     0.01  -0.06   0.03    -0.05   0.00  -0.05
   9   6    -0.12  -0.02  -0.07     0.02  -0.03  -0.01    -0.08   0.01  -0.09
  10   1    -0.06  -0.00  -0.00     0.00  -0.01   0.00    -0.03   0.02  -0.03
  11   1    -0.05  -0.00  -0.05    -0.00  -0.00  -0.01    -0.02   0.00  -0.02
  12   1    -0.01  -0.01  -0.03     0.02  -0.01  -0.01    -0.03  -0.01  -0.03
  13   6    -0.14  -0.01   0.08    -0.02  -0.04   0.06    -0.03   0.05  -0.01
  14   1    -0.06   0.00   0.04    -0.00  -0.01   0.02    -0.02   0.02  -0.00
  15   1    -0.02  -0.00   0.04    -0.01  -0.02   0.02    -0.00   0.01   0.01
  16   1    -0.06  -0.00  -0.00    -0.01  -0.00   0.02    -0.01   0.01  -0.00
  17   6     0.05  -0.05  -0.07     0.01  -0.07   0.03    -0.01  -0.05  -0.04
  18   1     0.03  -0.02  -0.04     0.01  -0.02   0.00    -0.01  -0.02  -0.02
  19   1    -0.00  -0.02  -0.04    -0.00  -0.01   0.01    -0.00  -0.02  -0.01
  20   1     0.03  -0.02  -0.00     0.00  -0.03   0.02     0.00  -0.02  -0.00
  21   1     0.02  -0.01  -0.00     0.04  -0.00  -0.04     0.02  -0.01   0.02
  22   6    -0.01  -0.02   0.05     0.04  -0.05   0.02     0.07   0.07   0.05
  23   8    -0.01  -0.05   0.12     0.01  -0.09   0.04     0.13   0.30  -0.22
  24   7     0.03   0.04  -0.06    -0.06  -0.25   0.23    -0.02  -0.04   0.27
  25   1     0.01   0.01  -0.02    -0.03  -0.10   0.10     0.00   0.02   0.04
  26   1     0.00   0.01  -0.03    -0.00  -0.05   0.06    -0.01  -0.05   0.12
  27   7    -0.08  -0.04   0.10     0.15   0.17  -0.19     0.09  -0.07   0.15
  28   1    -0.02   0.01  -0.00     0.04   0.05  -0.06     0.00  -0.07   0.11
  29   1    -0.02  -0.01   0.03     0.05   0.07  -0.08     0.03  -0.01   0.02
  30   6     0.02   0.05   0.03    -0.00   0.12   0.02    -0.05  -0.08   0.01
  31   8    -0.02   0.05   0.03     0.19   0.13  -0.31     0.05  -0.06   0.10
  32   7     0.06   0.09   0.01    -0.26   0.18   0.33    -0.36  -0.25   0.28
  33   1     0.02   0.03  -0.01    -0.05   0.06   0.05    -0.09  -0.09   0.10
  34   1     0.03   0.03   0.00    -0.09   0.05   0.13    -0.09  -0.07   0.02
  35   7     0.03   0.03   0.06     0.03   0.07   0.07     0.13   0.03  -0.33
  36   1     0.02   0.01   0.02    -0.05   0.02   0.10    -0.01  -0.00  -0.08
  37   1    -0.00   0.00   0.02     0.02   0.01  -0.00     0.05   0.04  -0.09
  38   6    -0.07  -0.05  -0.04    -0.04  -0.01   0.03    -0.03  -0.02  -0.02
  39   8    -0.21  -0.07  -0.23    -0.05   0.02   0.04    -0.06  -0.05  -0.09
  40   7     0.12   0.02  -0.04    -0.05  -0.02   0.04     0.04   0.01  -0.03
  41   1     0.04   0.02  -0.05    -0.02  -0.00   0.01     0.02   0.01  -0.02
  42   1     0.05   0.01   0.03    -0.01  -0.01   0.01     0.02   0.01   0.01
  43   7    -0.11  -0.13   0.17    -0.02  -0.02   0.02    -0.05  -0.03   0.05
  44   1    -0.01  -0.02   0.08    -0.01  -0.01   0.00    -0.01  -0.00   0.02
  45   1    -0.07  -0.04   0.04    -0.00  -0.00   0.01    -0.03  -0.01   0.01
  46   6     0.03   0.08  -0.06    -0.03   0.04  -0.12     0.07   0.04  -0.00
  47   8    -0.20   0.07   0.12     0.04  -0.05  -0.04    -0.05   0.13  -0.06
  48   7     0.44   0.12  -0.40    -0.10   0.21  -0.07     0.09  -0.12  -0.03
  49   1     0.14   0.04  -0.11    -0.02   0.07   0.01    -0.01  -0.05  -0.02
  50   1     0.17   0.04  -0.13    -0.04   0.08  -0.05     0.04  -0.05   0.01
  51   7    -0.08   0.08   0.05    -0.07  -0.01  -0.31     0.21   0.10   0.07
  52   1     0.02   0.02  -0.04    -0.03   0.01  -0.10     0.07   0.01   0.03
  53   1    -0.09   0.01   0.04     0.00  -0.03  -0.09     0.05   0.05   0.02
                     10                     11                     12
                        a                      a                      a 
 Frequencies --    56.6285                64.7431                72.4245
 Red. masses --    12.0416                12.2745                12.7783
 Frc consts  --     0.0000                 0.0000                 0.0000
 IR Inten    --     1.1128                 8.4421                 3.1092
 Raman Activ --     0.0000                 0.0000                 0.0000
 Depolar     --     0.0000                 0.0000                 0.0000
 Atom AN      X      Y      Z        X      Y      Z        X      Y      Z
   1   8    -0.01  -0.01   0.16     0.13  -0.01  -0.03    -0.12   0.07  -0.04
   2   6     0.14   0.07   0.15     0.04  -0.06   0.00    -0.11   0.06  -0.03
   3   1     0.08   0.01   0.02     0.00  -0.01   0.01    -0.04   0.01   0.00
   4   1     0.05   0.05   0.08     0.02  -0.04  -0.00    -0.04   0.02  -0.02
   5   6     0.07   0.03   0.14     0.00  -0.05   0.02    -0.05   0.12  -0.01
   6   1     0.02  -0.01   0.06    -0.00  -0.01   0.01    -0.01   0.05  -0.01
   7   1     0.02   0.01   0.04     0.00  -0.02   0.01    -0.01   0.03   0.00
   8   7     0.03   0.03   0.07    -0.01  -0.05   0.00    -0.03   0.12   0.03
   9   6     0.10  -0.01   0.19    -0.12  -0.01  -0.16     0.00   0.10   0.07
  10   1     0.04  -0.04   0.08    -0.05   0.04  -0.05     0.00   0.02   0.02
  11   1     0.02  -0.00   0.04    -0.03  -0.00  -0.04     0.00   0.03   0.02
  12   1     0.05   0.03   0.08    -0.04  -0.03  -0.08     0.00   0.04   0.03
  13   6    -0.07  -0.14  -0.05    -0.01   0.09   0.14     0.01   0.10  -0.00
  14   1    -0.01  -0.08   0.00    -0.02   0.06   0.03     0.00   0.03  -0.00
  15   1    -0.04  -0.03  -0.04     0.02   0.02   0.07     0.00   0.03  -0.01
  16   1    -0.03  -0.04  -0.03    -0.00   0.03   0.04     0.01   0.02   0.00
  17   6    -0.02   0.23  -0.04     0.09  -0.22   0.02    -0.06   0.13   0.05
  18   1     0.02   0.10   0.01     0.02  -0.10  -0.03    -0.03   0.04   0.03
  19   1    -0.02   0.06  -0.03     0.02  -0.06   0.01    -0.00   0.02   0.02
  20   1    -0.02   0.08  -0.04     0.05  -0.07   0.04    -0.02   0.05  -0.00
  21   1    -0.02   0.02   0.04     0.03  -0.01   0.00    -0.02   0.01  -0.01
  22   6    -0.11   0.02  -0.05    -0.02   0.05  -0.05     0.07  -0.01  -0.03
  23   8    -0.10   0.09  -0.13     0.07   0.16  -0.10     0.04  -0.04  -0.05
  24   7    -0.19  -0.13   0.10    -0.11  -0.24   0.11    -0.01  -0.14   0.16
  25   1    -0.05  -0.04   0.04    -0.01  -0.08   0.04    -0.02  -0.05   0.07
  26   1    -0.05  -0.04   0.04    -0.04  -0.07   0.02     0.01  -0.02   0.04
  27   7    -0.07   0.11  -0.14    -0.02   0.22  -0.19     0.20   0.15  -0.21
  28   1    -0.03   0.00  -0.01    -0.04   0.00  -0.00     0.05   0.02  -0.03
  29   1    -0.02   0.04  -0.04    -0.01   0.06  -0.04     0.05   0.02  -0.05
  30   6    -0.02   0.10  -0.11    -0.02   0.10   0.04    -0.04  -0.20   0.01
  31   8    -0.09   0.12   0.02    -0.07   0.12   0.15     0.10  -0.21  -0.06
  32   7    -0.01   0.06  -0.16     0.21   0.10  -0.21     0.06  -0.25  -0.11
  33   1    -0.01   0.01  -0.02     0.06   0.02  -0.05     0.04  -0.07  -0.04
  34   1     0.01   0.01  -0.08     0.04   0.02  -0.04    -0.03  -0.07   0.01
  35   7     0.05   0.15  -0.25    -0.19   0.12   0.20    -0.30  -0.20   0.24
  36   1     0.02   0.04  -0.09    -0.01   0.03   0.00    -0.08  -0.06   0.05
  37   1     0.00   0.04  -0.05    -0.04   0.04   0.04    -0.05  -0.04   0.04
  38   6    -0.03  -0.01  -0.06    -0.07  -0.03   0.05    -0.00  -0.07  -0.08
  39   8    -0.14  -0.01  -0.21    -0.09  -0.04   0.04     0.00  -0.23  -0.17
  40   7     0.11   0.03  -0.05    -0.05  -0.04   0.06     0.09   0.07  -0.12
  41   1     0.03   0.02  -0.04    -0.02  -0.00   0.01     0.06   0.00  -0.05
  42   1     0.05   0.01   0.01    -0.02  -0.00   0.01     0.03   0.04  -0.01
  43   7    -0.06  -0.07   0.09    -0.09  -0.03   0.06    -0.11  -0.04   0.05
  44   1     0.00  -0.01   0.05    -0.02  -0.01   0.02    -0.03   0.02   0.03
  45   1    -0.05  -0.02   0.02    -0.02  -0.01   0.02    -0.05  -0.04   0.02
  46   6     0.09  -0.15   0.07     0.07  -0.02  -0.04     0.06   0.10   0.07
  47   8     0.13  -0.23   0.17     0.08   0.10  -0.26     0.05   0.07   0.16
  48   7     0.06  -0.07   0.12    -0.03  -0.25   0.03     0.11   0.18   0.04
  49   1     0.01  -0.01   0.06    -0.03  -0.09  -0.03     0.03   0.06   0.03
  50   1     0.01  -0.01   0.02    -0.01  -0.10   0.05     0.03   0.06  -0.00
  51   7     0.12  -0.19  -0.05     0.19   0.05   0.10     0.05   0.08   0.01
  52   1     0.02  -0.04  -0.01     0.04  -0.00   0.08     0.01   0.03  -0.01
  53   1     0.04  -0.06  -0.02     0.07   0.06   0.03     0.02   0.00  -0.00
                     13                     14                     15
                        a                      a                      a 
 Frequencies --    77.0057                81.5988                84.7508
 Red. masses --    13.5209                12.6328                13.4102
 Frc consts  --     0.0000                 0.0000                 0.0000
 IR Inten    --     6.5568                 3.5442                 6.1260
 Raman Activ --     0.0000                 0.0000                 0.0000
 Depolar     --     0.0000                 0.0000                 0.0000
 Atom AN      X      Y      Z        X      Y      Z        X      Y      Z
   1   8    -0.04   0.01   0.02     0.09  -0.04   0.04     0.21  -0.04  -0.25
   2   6    -0.02   0.02   0.01     0.07  -0.03   0.00     0.15  -0.08  -0.10
   3   1    -0.00   0.01  -0.00     0.02   0.00  -0.01     0.05  -0.03  -0.03
   4   1    -0.01   0.01   0.01     0.02  -0.01   0.01     0.06  -0.05  -0.02
   5   6    -0.03   0.01  -0.00     0.02  -0.09  -0.03     0.04  -0.02  -0.03
   6   1    -0.02   0.01   0.01     0.01  -0.04  -0.00     0.02  -0.01  -0.01
   7   1     0.00   0.01   0.00    -0.01  -0.03  -0.02    -0.01  -0.03   0.01
   8   7    -0.03  -0.04  -0.04    -0.01  -0.06  -0.05    -0.02   0.12  -0.03
   9   6    -0.07  -0.06  -0.03     0.12  -0.06   0.09     0.10   0.18  -0.02
  10   1    -0.03  -0.02  -0.00     0.06  -0.05   0.03     0.05   0.03  -0.01
  11   1    -0.02  -0.03  -0.01     0.03  -0.01   0.03     0.02   0.08   0.00
  12   1    -0.02  -0.02  -0.01     0.04   0.01   0.05     0.04   0.06  -0.00
  13   6    -0.01  -0.04  -0.04    -0.07  -0.19  -0.15    -0.12   0.05  -0.04
  14   1    -0.01  -0.01  -0.00    -0.01  -0.09  -0.03    -0.02  -0.01  -0.01
  15   1     0.01  -0.00  -0.01    -0.04  -0.05  -0.07    -0.05   0.01  -0.02
  16   1    -0.00  -0.02  -0.02    -0.02  -0.05  -0.05    -0.04   0.03  -0.02
  17   6     0.01  -0.06  -0.06    -0.11   0.14  -0.07    -0.11   0.23  -0.02
  18   1     0.00  -0.02  -0.02    -0.02   0.07   0.01    -0.02   0.08   0.01
  19   1     0.00  -0.02  -0.02    -0.04   0.04  -0.02    -0.03   0.07  -0.00
  20   1     0.01  -0.01  -0.01    -0.06   0.04  -0.05    -0.06   0.06  -0.02
  21   1    -0.01  -0.00   0.02     0.03  -0.00  -0.01     0.04  -0.01  -0.04
  22   6    -0.03   0.02  -0.01     0.04   0.00  -0.00    -0.04   0.01   0.00
  23   8    -0.06  -0.06   0.08     0.15   0.25  -0.24    -0.05  -0.05   0.09
  24   7    -0.10  -0.15   0.12     0.01  -0.05   0.07    -0.03  -0.01  -0.03
  25   1    -0.04  -0.07   0.07     0.02   0.02  -0.03    -0.01  -0.02   0.01
  26   1    -0.01  -0.01   0.01    -0.01  -0.07   0.06    -0.01   0.01  -0.02
  27   7     0.07   0.28  -0.26    -0.06  -0.24   0.23    -0.04   0.11  -0.08
  28   1     0.01   0.07  -0.07    -0.03  -0.09   0.10    -0.01   0.04  -0.03
  29   1     0.01   0.06  -0.05    -0.00  -0.02   0.03    -0.01   0.02  -0.01
  30   6     0.01  -0.04  -0.03    -0.05   0.07  -0.00     0.02   0.03   0.00
  31   8    -0.02  -0.04   0.06     0.09   0.09  -0.13    -0.06   0.03   0.07
  32   7     0.00  -0.08  -0.04     0.05   0.06  -0.12    -0.03   0.04   0.06
  33   1    -0.00  -0.03   0.00     0.03   0.01  -0.04    -0.01   0.01   0.01
  34   1     0.01  -0.02  -0.03    -0.05   0.01   0.03     0.03   0.01  -0.02
  35   7     0.05  -0.01  -0.12    -0.33   0.07   0.27     0.15   0.03  -0.13
  36   1     0.01  -0.00  -0.04    -0.08   0.02   0.06     0.04   0.01  -0.03
  37   1     0.00   0.00  -0.02    -0.05   0.03   0.03     0.02   0.01  -0.01
  38   6     0.13   0.11   0.02     0.04  -0.00   0.05     0.01  -0.17   0.11
  39   8     0.21   0.23   0.16     0.12  -0.03   0.15     0.25  -0.53   0.25
  40   7    -0.02   0.00   0.03    -0.07  -0.00   0.04    -0.14   0.04   0.02
  41   1    -0.02  -0.01   0.05    -0.02  -0.01   0.03     0.01  -0.04   0.02
  42   1    -0.01  -0.03  -0.02    -0.03   0.00  -0.01    -0.07   0.07  -0.02
  43   7     0.24   0.11  -0.17     0.04   0.04  -0.04    -0.17   0.04   0.04
  44   1     0.05   0.01  -0.08    -0.00   0.01  -0.03    -0.08   0.06  -0.00
  45   1     0.10   0.06  -0.05     0.03   0.01  -0.01    -0.01  -0.05   0.04
  46   6    -0.10  -0.04   0.09    -0.04   0.03  -0.02    -0.03  -0.01   0.02
  47   8    -0.45  -0.02   0.28    -0.27   0.04   0.12    -0.08   0.03  -0.01
  48   7     0.18  -0.12  -0.14     0.02  -0.01  -0.08     0.00  -0.07  -0.01
  49   1     0.01  -0.03  -0.02    -0.04  -0.00   0.01    -0.00  -0.03  -0.02
  50   1     0.10  -0.03  -0.06     0.04  -0.00  -0.04     0.01  -0.03   0.00
  51   7     0.04   0.01   0.10     0.15   0.07  -0.12    -0.03   0.01   0.10
  52   1     0.06  -0.01  -0.02     0.06   0.01  -0.05     0.00  -0.00   0.03
  53   1    -0.04   0.00   0.05     0.02   0.02  -0.03    -0.02   0.01   0.03
                     16                     17                     18
                        a                      a                      a 
 Frequencies --    90.9188               102.2236               108.2876
 Red. masses --    11.8901                12.4176                12.3957
 Frc consts  --     0.0000                 0.0000                 0.0000
 IR Inten    --     4.2770                11.3635                 3.0763
 Raman Activ --     0.0000                 0.0000                 0.0000
 Depolar     --     0.0000                 0.0000                 0.0000
 Atom AN      X      Y      Z        X      Y      Z        X      Y      Z
   1   8    -0.05   0.07  -0.13    -0.07   0.07  -0.19    -0.16  -0.24  -0.22
   2   6    -0.04   0.03   0.02    -0.02   0.09  -0.18    -0.19  -0.25  -0.14
   3   1    -0.00  -0.01   0.02    -0.00   0.02  -0.04    -0.07  -0.08  -0.01
   4   1    -0.01  -0.00   0.01    -0.01   0.04  -0.06    -0.06  -0.09  -0.07
   5   6    -0.05   0.15   0.10     0.08   0.11  -0.18    -0.11  -0.16  -0.09
   6   1    -0.04   0.07   0.03     0.01   0.05  -0.06    -0.01  -0.03  -0.05
   7   1     0.01   0.05   0.06     0.04   0.05  -0.06    -0.05  -0.06  -0.02
   8   7    -0.06   0.12   0.07     0.15   0.00  -0.17    -0.08  -0.08   0.03
   9   6    -0.23   0.13  -0.12     0.07  -0.06  -0.13     0.06  -0.00   0.05
  10   1    -0.10   0.07  -0.02     0.01  -0.01  -0.03     0.04  -0.01  -0.01
  11   1    -0.08   0.03  -0.05     0.03  -0.03  -0.04     0.02   0.02   0.03
  12   1    -0.06   0.01  -0.07     0.01  -0.02  -0.03     0.02  -0.00   0.01
  13   6    -0.05   0.27   0.22     0.23   0.03  -0.17    -0.03  -0.05   0.03
  14   1    -0.04   0.11   0.06     0.06   0.02  -0.05     0.01  -0.02  -0.01
  15   1     0.02   0.07   0.10     0.08   0.02  -0.05    -0.03  -0.02   0.01
  16   1    -0.02   0.08   0.05     0.08  -0.01  -0.04    -0.00  -0.00   0.03
  17   6     0.09  -0.10   0.06     0.16  -0.08  -0.11    -0.18  -0.05   0.13
  18   1     0.01  -0.07  -0.01     0.03  -0.04  -0.04    -0.06  -0.01   0.05
  19   1     0.03  -0.04   0.01     0.05  -0.03  -0.02    -0.04   0.00   0.06
  20   1     0.07  -0.03   0.05     0.05  -0.02  -0.03    -0.08  -0.02   0.03
  21   1    -0.01   0.03  -0.05    -0.02   0.02  -0.04    -0.04  -0.05  -0.07
  22   6    -0.04  -0.03   0.03    -0.01   0.01   0.03     0.03   0.09   0.08
  23   8    -0.06   0.00  -0.04     0.01   0.03   0.04     0.17   0.19   0.16
  24   7    -0.03   0.06   0.03    -0.01  -0.01   0.02     0.04  -0.07   0.01
  25   1    -0.01   0.03  -0.01     0.00  -0.01   0.01     0.04  -0.03   0.00
  26   1    -0.01  -0.01   0.03    -0.01  -0.01   0.01    -0.02  -0.04  -0.01
  27   7    -0.06  -0.19   0.17    -0.03   0.02   0.04    -0.11   0.17   0.09
  28   1    -0.00  -0.03   0.03    -0.01   0.01   0.00    -0.06   0.03   0.02
  29   1    -0.00  -0.02   0.01    -0.01   0.01   0.01    -0.03   0.05   0.04
  30   6    -0.03   0.05  -0.08    -0.01   0.01  -0.03    -0.02   0.03   0.00
  31   8     0.03   0.05  -0.22    -0.06  -0.01  -0.08    -0.25  -0.02  -0.04
  32   7    -0.05   0.10  -0.04    -0.00   0.07  -0.02     0.04   0.24   0.02
  33   1    -0.01   0.04  -0.03    -0.01   0.03  -0.01    -0.02   0.10  -0.01
  34   1    -0.02   0.03   0.01     0.01   0.02   0.01     0.07   0.08   0.01
  35   7    -0.08   0.02   0.01     0.02  -0.03  -0.02     0.15  -0.07  -0.00
  36   1    -0.04   0.01   0.03     0.01  -0.01   0.00     0.07  -0.01   0.00
  37   1    -0.02  -0.00  -0.00     0.00  -0.01  -0.00     0.03  -0.03   0.01
  38   6     0.10  -0.02  -0.02    -0.20  -0.04   0.14     0.06   0.02  -0.10
  39   8     0.21  -0.14   0.03    -0.26   0.03   0.16     0.03   0.03  -0.16
  40   7     0.04   0.07  -0.07    -0.22  -0.13   0.19     0.12   0.06  -0.11
  41   1     0.04  -0.01  -0.00    -0.09  -0.00   0.04     0.05   0.00  -0.03
  42   1     0.01   0.02  -0.02    -0.08  -0.02   0.03     0.06  -0.00  -0.00
  43   7     0.06   0.06  -0.07    -0.19  -0.07   0.14     0.07  -0.01  -0.04
  44   1    -0.01   0.04  -0.03    -0.02  -0.06   0.05     0.01   0.02  -0.01
  45   1     0.02   0.00  -0.01    -0.04  -0.03   0.05    -0.01   0.01  -0.02
  46   6     0.07  -0.18   0.02     0.07  -0.02   0.14     0.08   0.04   0.07
  47   8    -0.01  -0.27   0.19     0.00  -0.09   0.33     0.05   0.03   0.14
  48   7     0.07  -0.10   0.03     0.14   0.10   0.11     0.05   0.07   0.12
  49   1    -0.00  -0.01   0.05     0.02   0.04   0.07    -0.01   0.02   0.06
  50   1     0.03  -0.01  -0.02     0.04   0.05   0.00     0.01   0.03   0.02
  51   7     0.17  -0.21  -0.19     0.13  -0.04  -0.01     0.19   0.05  -0.03
  52   1     0.05  -0.05  -0.07     0.04  -0.00  -0.03     0.05   0.01  -0.01
  53   1     0.04  -0.08  -0.05     0.01  -0.04   0.00     0.04   0.00  -0.00
                     19                     20                     21
                        a                      a                      a 
 Frequencies --   118.3584               120.4339               139.8772
 Red. masses --    12.1425                11.5699                13.1109
 Frc consts  --     0.0000                 0.0000                 0.0000
 IR Inten    --    25.0918                 5.6364                 1.8231
 Raman Activ --     0.0000                 0.0000                 0.0000
 Depolar     --     0.0000                 0.0000                 0.0000
 Atom AN      X      Y      Z        X      Y      Z        X      Y      Z
   1   8    -0.11  -0.06  -0.08    -0.29  -0.17  -0.08    -0.08  -0.06   0.05
   2   6    -0.02  -0.02  -0.02     0.19   0.06   0.11     0.05   0.01   0.06
   3   1    -0.00  -0.03   0.01     0.17  -0.03  -0.02     0.05  -0.00  -0.01
   4   1    -0.02   0.01  -0.03     0.08   0.11   0.12     0.02   0.03   0.05
   5   6     0.11   0.10   0.03     0.08   0.16   0.20    -0.02  -0.01   0.06
   6   1     0.03   0.06  -0.02    -0.03   0.07   0.08    -0.03  -0.00   0.04
   7   1     0.04   0.03   0.02     0.07   0.06   0.10     0.01   0.00   0.03
   8   7     0.20   0.10   0.15    -0.00   0.04  -0.01    -0.08  -0.05  -0.06
   9   6     0.23   0.08   0.20    -0.14  -0.06   0.03    -0.11  -0.09  -0.02
  10   1     0.08   0.02   0.05    -0.07  -0.01   0.03    -0.04  -0.03   0.00
  11   1     0.07   0.02   0.07    -0.04  -0.05  -0.02    -0.03  -0.04  -0.02
  12   1     0.06   0.03   0.07    -0.04  -0.01   0.01    -0.03  -0.02  -0.00
  13   6     0.26   0.08   0.09    -0.09  -0.04  -0.04    -0.13  -0.10  -0.08
  14   1     0.08   0.02   0.02    -0.04  -0.03   0.01    -0.04  -0.04  -0.01
  15   1     0.07   0.03   0.01    -0.02  -0.00  -0.02    -0.04  -0.03  -0.03
  16   1     0.08   0.01   0.04    -0.04  -0.02  -0.04    -0.05  -0.03  -0.03
  17   6     0.11   0.10   0.22     0.13   0.11  -0.20    -0.03   0.02  -0.16
  18   1     0.02   0.03   0.08     0.06   0.05  -0.05     0.01   0.02  -0.04
  19   1     0.04   0.03   0.08     0.02   0.01  -0.10    -0.02  -0.01  -0.07
  20   1     0.02   0.03   0.05     0.06   0.05  -0.06     0.00   0.01  -0.05
  21   1    -0.03  -0.00  -0.04    -0.14   0.00   0.00    -0.02   0.01  -0.01
  22   6    -0.02  -0.03   0.05     0.13   0.05   0.08    -0.12  -0.07   0.04
  23   8    -0.06  -0.11   0.12     0.18   0.08   0.08    -0.20  -0.22   0.17
  24   7    -0.01   0.01   0.03     0.13  -0.01   0.09    -0.08   0.05  -0.04
  25   1    -0.01  -0.00   0.02     0.04  -0.01   0.03    -0.04   0.00   0.01
  26   1     0.00   0.02  -0.00     0.03  -0.01   0.02    -0.01   0.04  -0.02
  27   7    -0.01  -0.03   0.05     0.12   0.09   0.04    -0.09  -0.05   0.02
  28   1     0.02   0.03  -0.03     0.02  -0.00   0.04     0.01   0.04  -0.05
  29   1     0.00   0.00  -0.01     0.03   0.01   0.03    -0.02  -0.01  -0.02
  30   6    -0.02  -0.01  -0.08    -0.10  -0.10   0.01     0.03  -0.01  -0.13
  31   8    -0.00  -0.01  -0.19    -0.33  -0.16   0.04     0.17  -0.00  -0.37
  32   7    -0.06   0.06  -0.02    -0.01   0.06  -0.02    -0.08   0.05   0.00
  33   1    -0.01   0.03  -0.02    -0.02   0.04  -0.02     0.00   0.03  -0.04
  34   1    -0.02   0.02   0.01     0.06   0.03  -0.02    -0.04   0.02   0.04
  35   7    -0.02  -0.04  -0.03     0.03  -0.20   0.02    -0.01  -0.05  -0.03
  36   1    -0.02  -0.01   0.02     0.05  -0.05  -0.01    -0.05  -0.01   0.06
  37   1    -0.01  -0.02  -0.00     0.00  -0.06   0.01    -0.02  -0.02   0.00
  38   6    -0.06  -0.00  -0.04     0.00   0.00   0.06     0.01   0.01   0.02
  39   8    -0.14   0.03  -0.12     0.04  -0.00   0.12     0.03   0.01   0.04
  40   7     0.04  -0.03  -0.01    -0.06  -0.02   0.07    -0.02   0.00   0.01
  41   1    -0.01   0.03  -0.04    -0.03   0.00   0.02     0.00  -0.01   0.01
  42   1    -0.00   0.02  -0.01    -0.04   0.01  -0.01    -0.00  -0.01   0.00
  43   7    -0.07  -0.04   0.05     0.00   0.03  -0.00     0.03   0.01  -0.01
  44   1     0.02  -0.03   0.04     0.01  -0.01  -0.00    -0.00   0.01  -0.01
  45   1    -0.02  -0.02   0.02     0.02  -0.00   0.01     0.01   0.01  -0.01
  46   6    -0.09  -0.02  -0.09    -0.00   0.02  -0.13     0.18   0.13   0.09
  47   8    -0.36   0.11  -0.17     0.03   0.02  -0.18     0.17   0.27  -0.07
  48   7    -0.09  -0.33  -0.15    -0.09   0.01  -0.08     0.08  -0.08   0.18
  49   1    -0.08  -0.11  -0.07    -0.04   0.00  -0.01    -0.01  -0.04   0.02
  50   1     0.03  -0.12  -0.02    -0.04   0.00  -0.01     0.02  -0.05   0.09
  51   7     0.15   0.07  -0.01     0.05   0.02  -0.20     0.33   0.21   0.21
  52   1     0.08  -0.01  -0.00    -0.00   0.00  -0.03     0.11   0.04   0.06
  53   1     0.02   0.05   0.01     0.02   0.01  -0.06     0.08   0.07   0.06
                     22                     23                     24
                        a                      a                      a 
 Frequencies --   147.0128               147.6401               167.8159
 Red. masses --    12.7015                 3.8818                12.5484
 Frc consts  --     0.0000                 0.0000                 0.0000
 IR Inten    --     8.6868                 6.2737                31.6024
 Raman Activ --     0.0000                 0.0000                 0.0000
 Depolar     --     0.0000                 0.0000                 0.0000
 Atom AN      X      Y      Z        X      Y      Z        X      Y      Z
   1   8    -0.02  -0.06  -0.06     0.00   0.00  -0.04     0.13   0.10   0.16
   2   6    -0.03  -0.06  -0.04     0.02   0.01  -0.01     0.01   0.06   0.02
   3   1    -0.01  -0.02  -0.01     0.01  -0.00  -0.00    -0.02   0.05   0.00
   4   1    -0.01  -0.02  -0.01     0.00   0.00  -0.00     0.00   0.01  -0.00
   5   6    -0.03  -0.07  -0.04     0.02   0.02  -0.00     0.00  -0.07  -0.07
   6   1     0.00  -0.02  -0.02     0.00   0.01  -0.00     0.03  -0.05  -0.02
   7   1    -0.02  -0.02  -0.02     0.01   0.01   0.00    -0.03  -0.03  -0.05
   8   7    -0.02  -0.04  -0.01     0.03   0.01  -0.00     0.00  -0.00  -0.03
   9   6     0.02  -0.00  -0.02     0.02  -0.01   0.01     0.05   0.04  -0.06
  10   1     0.02  -0.00  -0.01     0.01  -0.00   0.00     0.03   0.02  -0.04
  11   1     0.01   0.01   0.01     0.01  -0.01   0.00     0.02   0.02   0.01
  12   1     0.00  -0.00  -0.01     0.00  -0.00   0.01    -0.00   0.00  -0.02
  13   6    -0.01  -0.02  -0.00     0.03  -0.00  -0.02    -0.01   0.03   0.01
  14   1    -0.00  -0.00  -0.01     0.01  -0.00  -0.00    -0.01   0.02   0.00
  15   1    -0.01  -0.01   0.00     0.01   0.00  -0.01     0.00   0.01   0.01
  16   1    -0.00  -0.00   0.00     0.01  -0.01  -0.01    -0.00   0.01   0.00
  17   6    -0.05  -0.03   0.02     0.02   0.00   0.01    -0.03  -0.02   0.01
  18   1    -0.01  -0.01   0.00     0.00   0.00   0.00     0.00  -0.01  -0.01
  19   1    -0.02   0.00   0.01     0.01   0.00   0.01    -0.01   0.02   0.01
  20   1    -0.02  -0.02   0.01     0.00   0.00   0.00    -0.02  -0.02   0.02
  21   1    -0.02  -0.01  -0.01    -0.01   0.00  -0.00     0.04  -0.01   0.07
  22   6     0.15  -0.13   0.02     0.03  -0.02   0.01    -0.05  -0.08   0.10
  23   8    -0.10  -0.34  -0.10    -0.01  -0.05  -0.01    -0.06  -0.21   0.31
  24   7     0.15   0.16   0.19     0.03   0.02   0.03     0.02  -0.06  -0.10
  25   1    -0.03   0.06   0.07    -0.00   0.01   0.01     0.02  -0.05  -0.00
  26   1     0.10   0.09   0.08     0.02   0.01   0.01    -0.01  -0.00  -0.06
  27   7     0.46  -0.20  -0.06     0.07  -0.03  -0.01    -0.12   0.01   0.06
  28   1     0.15  -0.04   0.01     0.02  -0.01   0.00    -0.03   0.02  -0.02
  29   1     0.13  -0.09  -0.03     0.02  -0.01  -0.00    -0.04  -0.00   0.04
  30   6    -0.18   0.14  -0.02    -0.03   0.02  -0.00    -0.08  -0.01   0.06
  31   8    -0.30   0.17   0.14    -0.05   0.02   0.02    -0.10   0.01   0.31
  32   7    -0.09   0.16  -0.14    -0.01   0.02  -0.03    -0.02  -0.21  -0.08
  33   1    -0.05   0.04  -0.01    -0.01   0.00  -0.00    -0.00  -0.09   0.03
  34   1    -0.01   0.05  -0.05    -0.00   0.00  -0.01    -0.02  -0.07  -0.07
  35   7    -0.15   0.18  -0.08    -0.02   0.03  -0.02    -0.07   0.08  -0.08
  36   1    -0.00   0.05  -0.05    -0.00   0.01  -0.01    -0.02   0.02  -0.05
  37   1    -0.05   0.03  -0.03    -0.01   0.01  -0.01    -0.04   0.04   0.01
  38   6     0.01   0.00  -0.01    -0.03  -0.02   0.03     0.00  -0.01  -0.00
  39   8     0.01   0.00  -0.02    -0.04   0.01   0.02     0.00  -0.01   0.00
  40   7     0.04  -0.03   0.01    -0.20   0.21  -0.11    -0.00   0.00  -0.00
  41   1    -0.03   0.04  -0.03     0.22  -0.28   0.17     0.00  -0.00   0.00
  42   1    -0.03   0.05  -0.03     0.26  -0.38   0.23     0.00  -0.00   0.00
  43   7    -0.02   0.03  -0.02     0.17  -0.22   0.13    -0.00  -0.00  -0.00
  44   1     0.04  -0.04   0.02    -0.31   0.30  -0.16    -0.00  -0.00   0.00
  45   1     0.03  -0.03   0.02    -0.23   0.25  -0.15     0.00  -0.00   0.00
  46   6     0.02   0.03   0.05    -0.01   0.00  -0.00     0.07   0.08  -0.13
  47   8     0.02   0.04   0.05    -0.02   0.01  -0.01    -0.05   0.04   0.00
  48   7     0.06   0.01   0.04    -0.01  -0.02  -0.01    -0.07   0.13  -0.01
  49   1     0.00  -0.00   0.01    -0.00  -0.01  -0.01    -0.10   0.05   0.07
  50   1     0.00  -0.00   0.02     0.00  -0.01   0.00    -0.02   0.06  -0.04
  51   7     0.03   0.04   0.09     0.00   0.01   0.01     0.39   0.09  -0.43
  52   1     0.02   0.00   0.02     0.00   0.00   0.00     0.13   0.02  -0.14
  53   1     0.01   0.02   0.02    -0.00   0.01   0.00     0.10   0.00  -0.12
                     25                     26                     27
                        a                      a                      a 
 Frequencies --   180.8148               193.7734               263.1159
 Red. masses --    12.7385                10.6106                12.4838
 Frc consts  --     0.0000                 0.0000                 0.0000
 IR Inten    --    24.9817                 8.4564                31.0709
 Raman Activ --     0.0000                 0.0000                 0.0000
 Depolar     --     0.0000                 0.0000                 0.0000
 Atom AN      X      Y      Z        X      Y      Z        X      Y      Z
   1   8     0.04   0.04   0.04     0.24   0.17  -0.47    -0.41  -0.42  -0.01
   2   6     0.00   0.02   0.01    -0.08  -0.10  -0.06    -0.10  -0.22  -0.10
   3   1    -0.01   0.01   0.00    -0.07  -0.06   0.05    -0.01  -0.11  -0.01
   4   1     0.00   0.00   0.00    -0.02  -0.13  -0.06    -0.06  -0.00  -0.05
   5   6     0.00   0.00   0.00    -0.12   0.24   0.18     0.08   0.01  -0.01
   6   1     0.00  -0.00   0.00    -0.11   0.16   0.05     0.00   0.05  -0.03
   7   1    -0.00   0.00  -0.00     0.06   0.10   0.13     0.05  -0.00   0.05
   8   7    -0.00   0.01  -0.00    -0.07  -0.03   0.11     0.05   0.07  -0.04
   9   6    -0.01   0.00  -0.01    -0.20  -0.22   0.27    -0.02   0.03  -0.03
  10   1    -0.01  -0.00   0.00    -0.10  -0.12   0.15    -0.01   0.04  -0.02
  11   1    -0.01   0.00  -0.01    -0.09  -0.10  -0.00     0.02  -0.02   0.01
  12   1     0.00   0.00  -0.00    -0.01  -0.01   0.11    -0.05  -0.01  -0.01
  13   6    -0.00   0.01   0.00     0.09  -0.16  -0.10    -0.03   0.08   0.01
  14   1     0.00   0.00  -0.00     0.05  -0.07  -0.04    -0.01   0.03   0.01
  15   1    -0.00   0.00   0.00     0.01  -0.03  -0.08    -0.01   0.02   0.02
  16   1    -0.00   0.00   0.00     0.05  -0.07  -0.00    -0.02   0.03  -0.01
  17   6     0.00  -0.00  -0.00    -0.01  -0.01   0.02     0.10   0.12  -0.14
  18   1    -0.00  -0.00  -0.00    -0.07   0.02   0.08    -0.01   0.06   0.02
  19   1     0.00  -0.00  -0.00     0.04  -0.10  -0.01     0.05  -0.04  -0.06
  20   1     0.00   0.00  -0.00     0.03   0.07  -0.07     0.05   0.09  -0.10
  21   1     0.02   0.01  -0.00     0.07   0.01  -0.09    -0.13  -0.09  -0.00
  22   6     0.18   0.01   0.14    -0.01  -0.02   0.01    -0.01  -0.02  -0.01
  23   8     0.33   0.01   0.33    -0.02  -0.04   0.03    -0.02  -0.03   0.00
  24   7     0.27  -0.23  -0.11     0.00  -0.01  -0.02    -0.00  -0.03  -0.01
  25   1     0.14  -0.08  -0.05     0.00  -0.00  -0.01     0.00   0.00  -0.02
  26   1     0.03  -0.03  -0.12    -0.00   0.01  -0.02     0.00   0.02  -0.03
  27   7    -0.03   0.13   0.13    -0.01  -0.01   0.00    -0.00  -0.02  -0.00
  28   1    -0.04   0.04  -0.01    -0.01  -0.00  -0.00    -0.00  -0.01   0.00
  29   1    -0.01   0.07   0.06    -0.01  -0.00   0.01    -0.00   0.01   0.00
  30   6    -0.14   0.05  -0.19     0.02   0.03   0.04     0.15   0.10   0.10
  31   8     0.03   0.12  -0.18     0.07   0.06   0.14     0.29   0.16   0.17
  32   7    -0.22  -0.11  -0.20     0.00  -0.09   0.02     0.04  -0.17   0.10
  33   1    -0.02  -0.06  -0.05     0.03  -0.04   0.00     0.12  -0.09  -0.02
  34   1    -0.10  -0.04  -0.07     0.00  -0.03  -0.04     0.04  -0.06  -0.10
  35   7    -0.26   0.15  -0.19    -0.02   0.11  -0.02    -0.05   0.34   0.01
  36   1    -0.09   0.04  -0.04    -0.02   0.03  -0.02    -0.09   0.07  -0.01
  37   1    -0.07   0.06  -0.05    -0.01   0.04   0.00    -0.01   0.14   0.02
  38   6     0.00  -0.00   0.00     0.00   0.02  -0.00    -0.00   0.00   0.01
  39   8     0.00  -0.00   0.00    -0.01   0.05  -0.01    -0.00   0.00   0.01
  40   7    -0.00  -0.00   0.00     0.01  -0.01   0.01    -0.01  -0.01   0.01
  41   1    -0.00   0.00  -0.00    -0.01   0.01  -0.00    -0.01  -0.00   0.01
  42   1    -0.00   0.00  -0.00    -0.01   0.01  -0.01    -0.00  -0.00   0.00
  43   7    -0.00   0.00  -0.00     0.01   0.01  -0.01    -0.00  -0.00   0.01
  44   1     0.01  -0.01   0.00     0.02  -0.01   0.00    -0.00   0.00   0.00
  45   1     0.00  -0.01   0.00     0.01   0.00  -0.00    -0.00   0.00   0.00
  46   6    -0.02  -0.05   0.06     0.03   0.02  -0.03     0.00  -0.01  -0.01
  47   8     0.07  -0.05  -0.01     0.05   0.01  -0.04     0.00  -0.02   0.01
  48   7    -0.03  -0.04   0.04    -0.03   0.03   0.01    -0.01   0.02   0.00
  49   1     0.07  -0.01  -0.04    -0.00   0.01   0.00     0.02   0.01  -0.00
  50   1     0.03  -0.01  -0.01    -0.00   0.01  -0.00     0.03   0.02  -0.03
  51   7    -0.19  -0.06   0.18     0.04   0.01  -0.05    -0.01  -0.01  -0.02
  52   1    -0.04  -0.01   0.03     0.01   0.00  -0.01     0.00  -0.01  -0.00
  53   1    -0.07  -0.02   0.06     0.02   0.00  -0.02     0.02   0.00  -0.01
                     28                     29                     30
                        a                      a                      a 
 Frequencies --   269.1578               278.1506               309.7151
 Red. masses --     3.4099                 4.3291                 5.0662
 Frc consts  --     0.0000                 0.0000                 0.0000
 IR Inten    --    64.2181                41.7893                59.3580
 Raman Activ --     0.0000                 0.0000                 0.0000
 Depolar     --     0.0000                 0.0000                 0.0000
 Atom AN      X      Y      Z        X      Y      Z        X      Y      Z
   1   8     0.04  -0.06   0.13     0.14   0.07   0.21     0.13  -0.15   0.16
   2   6    -0.14  -0.13  -0.02    -0.19  -0.08   0.03     0.08  -0.09  -0.03
   3   1    -0.11  -0.04   0.06    -0.16  -0.01   0.09     0.01  -0.01  -0.01
   4   1    -0.08  -0.07  -0.09    -0.10  -0.09  -0.11     0.02  -0.03  -0.02
   5   6     0.06   0.02   0.02     0.06  -0.01   0.01     0.01  -0.03  -0.03
   6   1     0.00   0.04  -0.01     0.02   0.02  -0.01     0.00  -0.00  -0.01
   7   1     0.04   0.01   0.04     0.02  -0.00   0.01    -0.01  -0.03   0.02
   8   7     0.05   0.04  -0.01     0.07   0.00  -0.00    -0.05   0.08  -0.03
   9   6     0.01   0.04  -0.04     0.08   0.07  -0.09    -0.21  -0.06   0.04
  10   1    -0.03  -0.04   0.06    -0.03  -0.09   0.10    -0.07   0.05  -0.03
  11   1    -0.05   0.03  -0.09    -0.09   0.07  -0.17    -0.00  -0.09   0.06
  12   1     0.09   0.05  -0.01     0.20   0.10  -0.02    -0.16  -0.05   0.02
  13   6    -0.07   0.02   0.03    -0.10  -0.01   0.06     0.20   0.15  -0.09
  14   1     0.02  -0.02  -0.02     0.06  -0.05  -0.05     0.04   0.08  -0.04
  15   1    -0.08  -0.03   0.02    -0.16  -0.08   0.03     0.11   0.08  -0.04
  16   1    -0.03   0.07   0.04    -0.03   0.12   0.08     0.10  -0.02  -0.01
  17   6     0.12   0.07  -0.12     0.15   0.03  -0.12    -0.10   0.11   0.01
  18   1    -0.08   0.06   0.09    -0.14   0.06   0.15    -0.08   0.05   0.06
  19   1     0.11  -0.13  -0.05     0.17  -0.23  -0.05     0.01  -0.02   0.02
  20   1     0.08   0.15  -0.16     0.11   0.20  -0.23    -0.04   0.07  -0.06
  21   1     0.07  -0.02  -0.03     0.08  -0.00   0.03     0.04  -0.04   0.04
  22   6     0.00   0.00   0.00     0.00  -0.00   0.00     0.03  -0.01   0.01
  23   8    -0.00  -0.01   0.02     0.01   0.01  -0.01     0.03   0.01   0.01
  24   7    -0.00   0.01   0.00     0.00   0.01  -0.00     0.02   0.13  -0.13
  25   1    -0.00  -0.01   0.01     0.00  -0.00   0.00    -0.01  -0.16   0.16
  26   1    -0.00  -0.01   0.02    -0.00  -0.01   0.01    -0.08  -0.37   0.30
  27   7    -0.02  -0.00   0.02     0.01   0.01  -0.02    -0.02  -0.03   0.06
  28   1     0.02   0.04  -0.05    -0.01  -0.03   0.04     0.08   0.17  -0.21
  29   1     0.00   0.01  -0.02    -0.00  -0.01   0.01     0.02   0.05  -0.06
  30   6    -0.06  -0.01   0.04    -0.04  -0.02  -0.06    -0.02   0.01  -0.02
  31   8    -0.04  -0.01   0.01    -0.12  -0.04  -0.04    -0.03   0.01  -0.01
  32   7     0.18   0.03  -0.20    -0.14   0.06   0.09    -0.03   0.00  -0.02
  33   1    -0.29  -0.01   0.30     0.15   0.04  -0.19     0.01  -0.00  -0.02
  34   1    -0.42  -0.02   0.46     0.29   0.04  -0.29     0.02   0.00  -0.04
  35   7     0.02  -0.02  -0.02     0.00  -0.11   0.01    -0.01  -0.02   0.00
  36   1     0.13   0.00  -0.13    -0.05  -0.03   0.09     0.00  -0.00   0.01
  37   1     0.05  -0.01  -0.05    -0.03  -0.05   0.03     0.00  -0.01  -0.00
  38   6     0.00   0.00   0.01    -0.00   0.01   0.00    -0.01   0.01  -0.01
  39   8     0.00   0.00   0.01    -0.00   0.01   0.01    -0.01   0.01  -0.01
  40   7    -0.02  -0.00   0.01    -0.01  -0.02   0.02     0.01  -0.01   0.01
  41   1    -0.00  -0.01   0.01    -0.01   0.01   0.00    -0.01   0.01  -0.01
  42   1    -0.00  -0.01   0.00    -0.02   0.01  -0.01    -0.01   0.02  -0.01
  43   7    -0.00   0.01   0.00     0.02  -0.01   0.01     0.01  -0.01   0.01
  44   1     0.01  -0.01   0.00    -0.03   0.03  -0.01    -0.02   0.02  -0.01
  45   1     0.00  -0.00   0.00    -0.02   0.02  -0.01    -0.01   0.01  -0.01
  46   6     0.00   0.00  -0.00    -0.01   0.00   0.00    -0.03  -0.01   0.01
  47   8     0.00   0.01  -0.01    -0.01   0.01  -0.00    -0.00  -0.01  -0.00
  48   7    -0.01  -0.00   0.00     0.02  -0.00  -0.01     0.18   0.01  -0.09
  49   1     0.01  -0.00  -0.01    -0.04  -0.00   0.02    -0.18  -0.00   0.10
  50   1     0.01   0.00  -0.01    -0.05  -0.01   0.03    -0.31  -0.04   0.19
  51   7    -0.00   0.00   0.00     0.02   0.01  -0.01    -0.05  -0.01   0.03
  52   1     0.01   0.00  -0.01     0.00   0.00  -0.00     0.02  -0.01  -0.02
  53   1     0.00  -0.00  -0.00    -0.02   0.00   0.01     0.00  -0.01  -0.00
                     31                     32                     33
                        a                      a                      a 
 Frequencies --   311.4543               317.9583               328.3796
 Red. masses --     7.0116                 3.4950                 3.8770
 Frc consts  --     0.0000                 0.0000                 0.0000
 IR Inten    --    45.6844               526.7019                98.2872
 Raman Activ --     0.0000                 0.0000                 0.0000
 Depolar     --     0.0000                 0.0000                 0.0000
 Atom AN      X      Y      Z        X      Y      Z        X      Y      Z
   1   8     0.21  -0.16   0.25     0.03  -0.01   0.01    -0.12  -0.07  -0.04
   2   6     0.10  -0.11  -0.04     0.02  -0.01  -0.01     0.21   0.10   0.03
   3   1    -0.00  -0.01  -0.00     0.00   0.00  -0.00     0.15   0.02  -0.06
   4   1     0.02  -0.04  -0.03     0.01  -0.00  -0.00     0.09   0.10   0.11
   5   6     0.01  -0.05  -0.05    -0.01  -0.01  -0.01    -0.02  -0.02  -0.00
   6   1     0.00  -0.01  -0.02     0.00  -0.01  -0.00    -0.01  -0.02   0.02
   7   1    -0.02  -0.04   0.02    -0.01  -0.01  -0.00    -0.01  -0.01  -0.00
   8   7    -0.06   0.10  -0.05    -0.02   0.02  -0.01    -0.05  -0.01  -0.03
   9   6    -0.26  -0.08   0.05    -0.03  -0.01   0.02    -0.06   0.02  -0.08
  10   1    -0.09   0.04  -0.01     0.01   0.03  -0.03    -0.07  -0.09   0.09
  11   1    -0.01  -0.11   0.05     0.03  -0.02   0.05    -0.11   0.04  -0.14
  12   1    -0.18  -0.05   0.03    -0.06  -0.03   0.01     0.13   0.07  -0.02
  13   6     0.27   0.20  -0.11     0.01   0.03  -0.00     0.14   0.04  -0.06
  14   1     0.04   0.12  -0.04    -0.03   0.03   0.02     0.26  -0.06  -0.22
  15   1     0.15   0.11  -0.05     0.05   0.03  -0.00    -0.23  -0.12  -0.04
  16   1     0.12  -0.03  -0.01     0.00  -0.03  -0.02     0.11   0.21   0.20
  17   6    -0.13   0.14  -0.01    -0.02   0.02  -0.01    -0.16  -0.09   0.15
  18   1    -0.11   0.08   0.09    -0.02   0.01   0.02    -0.12  -0.03   0.09
  19   1     0.02  -0.04   0.01     0.01  -0.02  -0.00     0.02  -0.07   0.10
  20   1    -0.04   0.11  -0.10    -0.00   0.02  -0.02    -0.06   0.00  -0.01
  21   1     0.07  -0.05   0.05     0.01  -0.00   0.00    -0.07   0.02  -0.01
  22   6    -0.02   0.01  -0.01    -0.01  -0.00   0.00    -0.02  -0.03   0.04
  23   8    -0.02   0.00  -0.01    -0.01  -0.00   0.01    -0.02  -0.01   0.04
  24   7    -0.02  -0.09   0.11    -0.00  -0.02   0.02     0.01  -0.02  -0.02
  25   1     0.00   0.12  -0.12     0.00   0.03  -0.03     0.01   0.03  -0.04
  26   1     0.06   0.27  -0.22     0.01   0.07  -0.06     0.01   0.10  -0.10
  27   7     0.02   0.02  -0.05     0.01   0.01  -0.02     0.04   0.07  -0.08
  28   1    -0.06  -0.13   0.16    -0.03  -0.05   0.06    -0.11  -0.21   0.25
  29   1    -0.01  -0.04   0.04    -0.01  -0.01   0.02    -0.02  -0.04   0.06
  30   6    -0.03  -0.02  -0.03    -0.00  -0.00  -0.00     0.05   0.01  -0.00
  31   8    -0.07  -0.03  -0.04    -0.00  -0.00  -0.01     0.08   0.02  -0.02
  32   7    -0.02   0.08   0.00     0.01   0.01  -0.01     0.02  -0.03   0.01
  33   1    -0.01   0.04  -0.02    -0.02   0.00   0.01    -0.01  -0.01   0.03
  34   1     0.04   0.03  -0.01    -0.02   0.00   0.03    -0.07  -0.01   0.07
  35   7     0.02  -0.08   0.00    -0.00  -0.01   0.00    -0.03   0.06   0.01
  36   1     0.01  -0.02   0.02     0.01  -0.00  -0.01     0.03   0.02  -0.06
  37   1    -0.01  -0.03   0.00     0.00  -0.00  -0.00     0.02   0.03  -0.02
  38   6     0.01  -0.01   0.01    -0.07   0.08  -0.04    -0.00  -0.00  -0.01
  39   8    -0.01   0.02  -0.00    -0.01  -0.01  -0.01    -0.00  -0.00  -0.01
  40   7    -0.03   0.03  -0.02     0.13  -0.20   0.13     0.01  -0.00  -0.01
  41   1     0.02  -0.03   0.02    -0.15   0.18  -0.12    -0.00   0.01  -0.01
  42   1     0.05  -0.07   0.04    -0.28   0.39  -0.22    -0.00   0.01  -0.00
  43   7    -0.04   0.03  -0.02     0.21  -0.20   0.11    -0.00  -0.01   0.00
  44   1     0.07  -0.07   0.03    -0.36   0.40  -0.19    -0.01   0.01  -0.00
  45   1     0.03  -0.03   0.02    -0.19   0.20  -0.12    -0.01   0.00  -0.00
  46   6     0.02  -0.00   0.00     0.01  -0.00   0.00    -0.04  -0.01   0.02
  47   8    -0.01  -0.00   0.02    -0.00  -0.00   0.01    -0.02   0.00   0.00
  48   7    -0.11  -0.01   0.07    -0.01   0.00   0.01     0.15   0.01  -0.08
  49   1     0.13   0.00  -0.07     0.02   0.00  -0.01    -0.17   0.00   0.09
  50   1     0.22   0.03  -0.13     0.04   0.01  -0.02    -0.26  -0.03   0.15
  51   7     0.04  -0.01  -0.03     0.00  -0.01  -0.01    -0.01  -0.01  -0.00
  52   1    -0.02   0.01   0.01    -0.00   0.00   0.00     0.01  -0.00  -0.01
  53   1    -0.01  -0.00   0.00     0.00  -0.00  -0.00    -0.01  -0.00   0.00
                     34                     35                     36
                        a                      a                      a 
 Frequencies --   330.1446               362.0508               371.9184
 Red. masses --     3.3655                 5.1550                 5.4192
 Frc consts  --     0.0000                 0.0000                 0.0000
 IR Inten    --   171.8168                12.2890                 0.4054
 Raman Activ --     0.0000                 0.0000                 0.0000
 Depolar     --     0.0000                 0.0000                 0.0000
 Atom AN      X      Y      Z        X      Y      Z        X      Y      Z
   1   8    -0.07  -0.03  -0.03     0.08  -0.14   0.24    -0.03   0.04  -0.04
   2   6     0.15   0.08   0.03    -0.13  -0.19   0.02    -0.00  -0.01   0.19
   3   1     0.11   0.02  -0.05    -0.13  -0.07   0.10    -0.02  -0.05   0.10
   4   1     0.07   0.07   0.08    -0.09  -0.10  -0.12    -0.02  -0.02   0.02
   5   6    -0.02  -0.03  -0.01     0.10   0.20   0.15     0.08   0.13   0.24
   6   1    -0.01  -0.03   0.02    -0.08   0.17   0.04    -0.05   0.08   0.10
   7   1    -0.01  -0.01  -0.01     0.14   0.09   0.15     0.10   0.08   0.10
   8   7    -0.05  -0.02  -0.04     0.04   0.09  -0.05     0.02  -0.05  -0.02
   9   6    -0.03   0.01  -0.06    -0.07   0.11  -0.16     0.10   0.18  -0.33
  10   1    -0.04  -0.07   0.06    -0.08  -0.02   0.05     0.11   0.27  -0.31
  11   1    -0.08   0.03  -0.10    -0.10   0.06  -0.15     0.17   0.08   0.15
  12   1     0.09   0.05  -0.01     0.10   0.06  -0.06    -0.18  -0.13  -0.19
  13   6     0.09   0.04  -0.04     0.07  -0.07  -0.25     0.01  -0.20  -0.17
  14   1     0.18  -0.03  -0.16     0.11  -0.09  -0.12    -0.01  -0.09  -0.01
  15   1    -0.16  -0.08  -0.02    -0.09  -0.04  -0.14     0.02  -0.02  -0.11
  16   1     0.08   0.16   0.14     0.05   0.02  -0.01     0.01  -0.11  -0.07
  17   6    -0.13  -0.08   0.09    -0.03   0.03   0.07    -0.15  -0.08   0.17
  18   1    -0.11  -0.02   0.08     0.20  -0.08  -0.22    -0.23  -0.00   0.20
  19   1     0.03  -0.08   0.06    -0.15   0.31   0.05     0.10  -0.17   0.12
  20   1    -0.04   0.02  -0.04    -0.09  -0.24   0.28    -0.05   0.10  -0.12
  21   1    -0.06   0.00   0.02     0.07  -0.04   0.01    -0.02   0.02  -0.01
  22   6     0.03   0.03  -0.06     0.00   0.00  -0.00    -0.00   0.01  -0.00
  23   8     0.02   0.01  -0.05     0.00   0.00  -0.00    -0.00   0.00  -0.00
  24   7    -0.01   0.01   0.03    -0.00  -0.00   0.01    -0.00  -0.02   0.01
  25   1    -0.01  -0.04   0.05    -0.00   0.00  -0.00     0.00   0.01  -0.01
  26   1    -0.01  -0.11   0.12     0.00   0.01  -0.00     0.01   0.03  -0.03
  27   7    -0.05  -0.09   0.11    -0.00  -0.00   0.00    -0.00  -0.01   0.01
  28   1     0.15   0.30  -0.35     0.00   0.01  -0.01     0.01   0.01  -0.01
  29   1     0.02   0.06  -0.08     0.00   0.00  -0.00     0.00   0.00  -0.01
  30   6    -0.01  -0.00   0.04    -0.02   0.00  -0.00    -0.00  -0.00  -0.00
  31   8    -0.01   0.00   0.05    -0.02  -0.00   0.00     0.00  -0.00  -0.00
  32   7     0.02  -0.03  -0.01    -0.01   0.02  -0.00     0.00  -0.00  -0.00
  33   1     0.02  -0.01  -0.01    -0.00   0.01  -0.00    -0.00  -0.00  -0.00
  34   1     0.02  -0.01  -0.03     0.03   0.01  -0.03    -0.01  -0.00   0.01
  35   7     0.02   0.02  -0.02     0.01  -0.02  -0.00     0.00  -0.00  -0.00
  36   1    -0.05   0.00   0.05    -0.01  -0.00   0.02    -0.00  -0.00   0.00
  37   1    -0.02   0.01   0.02    -0.00  -0.01   0.00    -0.00  -0.00   0.00
  38   6    -0.01   0.01  -0.01    -0.00  -0.01   0.00    -0.00   0.00  -0.01
  39   8    -0.00  -0.00  -0.00     0.01  -0.02   0.01    -0.01   0.01  -0.01
  40   7     0.01  -0.01   0.01     0.01  -0.01   0.01    -0.00   0.01  -0.01
  41   1    -0.01   0.01  -0.01    -0.00   0.01  -0.01     0.01  -0.01   0.00
  42   1    -0.02   0.03  -0.02    -0.02   0.03  -0.01     0.01  -0.01   0.01
  43   7     0.02  -0.02   0.01     0.01  -0.01   0.00    -0.01   0.00  -0.00
  44   1    -0.03   0.03  -0.02    -0.04   0.04  -0.02     0.02  -0.03   0.01
  45   1    -0.02   0.02  -0.01    -0.01   0.01  -0.00    -0.00  -0.00   0.00
  46   6     0.04   0.01  -0.02     0.00  -0.00  -0.00    -0.00  -0.01   0.00
  47   8     0.01   0.01   0.01     0.00  -0.00  -0.00    -0.00  -0.01   0.01
  48   7    -0.21  -0.02   0.11    -0.01   0.00   0.01     0.01   0.01  -0.01
  49   1     0.23   0.00  -0.13     0.01   0.00  -0.01    -0.01   0.00   0.01
  50   1     0.38   0.05  -0.23     0.02   0.01  -0.02    -0.01   0.00   0.00
  51   7     0.01   0.02   0.00     0.01   0.00  -0.00    -0.01  -0.01  -0.00
  52   1    -0.00   0.01   0.00     0.00   0.00  -0.00    -0.01  -0.00   0.02
  53   1     0.01  -0.00  -0.00    -0.01   0.00   0.00     0.03   0.01  -0.01
                     37                     38                     39
                        a                      a                      a 
 Frequencies --   378.0977               391.8387               429.6056
 Red. masses --     2.4355                 3.7743                 8.5151
 Frc consts  --     0.0000                 0.0000                 0.0000
 IR Inten    --     0.5384               184.8884                 0.2282
 Raman Activ --     0.0000                 0.0000                 0.0000
 Depolar     --     0.0000                 0.0000                 0.0000
 Atom AN      X      Y      Z        X      Y      Z        X      Y      Z
   1   8    -0.09  -0.03  -0.01    -0.01   0.00  -0.01    -0.05   0.16  -0.14
   2   6     0.04   0.01   0.06     0.00   0.00   0.00    -0.13   0.02   0.10
   3   1     0.04  -0.01   0.01     0.01   0.00  -0.00    -0.05  -0.00   0.05
   4   1     0.01   0.03   0.04     0.00   0.00   0.01    -0.05  -0.02  -0.00
   5   6     0.02  -0.02   0.04    -0.00  -0.01  -0.01     0.09  -0.09   0.03
   6   1    -0.01  -0.02   0.03     0.01  -0.01  -0.00     0.05  -0.05   0.01
   7   1     0.02   0.01  -0.01    -0.01  -0.01  -0.01     0.02  -0.01  -0.06
   8   7     0.01  -0.07  -0.02     0.00  -0.01   0.00     0.20  -0.25   0.09
   9   6     0.03   0.05  -0.18    -0.00  -0.00  -0.01    -0.12  -0.22  -0.29
  10   1    -0.11  -0.18   0.19    -0.02  -0.03   0.04    -0.11   0.05  -0.08
  11   1    -0.21   0.11  -0.32    -0.03   0.01  -0.04    -0.04  -0.07  -0.10
  12   1     0.35   0.15  -0.06     0.05   0.02   0.00    -0.05  -0.14  -0.16
  13   6     0.12  -0.02  -0.02     0.01   0.01   0.01     0.18  -0.09   0.29
  14   1    -0.23   0.12   0.20    -0.03   0.02   0.02     0.10   0.01   0.01
  15   1     0.39   0.18  -0.00     0.04   0.02   0.01    -0.01  -0.09   0.13
  16   1    -0.01  -0.29  -0.23    -0.00  -0.03  -0.02     0.06   0.07   0.14
  17   6    -0.17   0.01   0.11    -0.01   0.01   0.00    -0.10   0.40  -0.05
  18   1    -0.11   0.04   0.11     0.00   0.01   0.00     0.12   0.24   0.03
  19   1    -0.00  -0.03   0.07    -0.01   0.01  -0.00    -0.12   0.23  -0.04
  20   1    -0.09   0.03  -0.04    -0.01   0.00  -0.00    -0.18   0.05  -0.05
  21   1    -0.03   0.01  -0.02    -0.01  -0.00   0.01    -0.01   0.04  -0.03
  22   6    -0.00  -0.01   0.01     0.04   0.07  -0.09    -0.00  -0.00   0.00
  23   8    -0.00  -0.01   0.01     0.02   0.05  -0.09    -0.00  -0.00   0.00
  24   7     0.00   0.03  -0.03    -0.02  -0.23   0.19    -0.00   0.00  -0.00
  25   1     0.00  -0.01   0.01    -0.03   0.08  -0.07     0.00   0.00  -0.00
  26   1    -0.02  -0.06   0.04     0.12   0.44  -0.33    -0.00  -0.01   0.01
  27   7     0.01   0.01  -0.02    -0.09  -0.12   0.17     0.00   0.00  -0.00
  28   1    -0.02  -0.03   0.04     0.16   0.31  -0.35    -0.00  -0.00   0.00
  29   1    -0.00  -0.01   0.01     0.01   0.05  -0.06    -0.00  -0.00   0.00
  30   6     0.02   0.00   0.01    -0.04  -0.00   0.05     0.00  -0.00   0.01
  31   8     0.02   0.00   0.01    -0.03  -0.00   0.04     0.00  -0.00   0.01
  32   7     0.01  -0.02   0.01     0.04  -0.01  -0.04     0.00  -0.01   0.00
  33   1     0.01  -0.01   0.00     0.00  -0.01   0.01     0.00   0.00  -0.00
  34   1    -0.01  -0.01   0.01    -0.00  -0.01  -0.00    -0.00  -0.00   0.01
  35   7    -0.01   0.03   0.01     0.07  -0.01  -0.05    -0.00   0.01  -0.01
  36   1     0.01   0.01  -0.03    -0.14  -0.01   0.16    -0.01   0.00   0.00
  37   1     0.00   0.02  -0.00    -0.03  -0.01   0.04    -0.00   0.00   0.00
  38   6    -0.00   0.01   0.01    -0.00   0.00   0.00     0.00  -0.01   0.00
  39   8    -0.00   0.01   0.01     0.00  -0.00   0.00     0.00  -0.01   0.00
  40   7    -0.00   0.00   0.01     0.00  -0.00   0.00     0.00  -0.01   0.00
  41   1     0.00  -0.00   0.00    -0.00   0.00  -0.00    -0.02   0.02  -0.01
  42   1    -0.01   0.01  -0.00    -0.00   0.01  -0.00     0.01  -0.02   0.01
  43   7     0.01   0.00  -0.01     0.00  -0.00  -0.00    -0.00   0.00  -0.00
  44   1     0.00  -0.00  -0.01    -0.01   0.01  -0.00    -0.03   0.03  -0.01
  45   1     0.01   0.01  -0.01    -0.00   0.00  -0.00     0.01  -0.02   0.01
  46   6     0.01   0.01  -0.01    -0.01  -0.01  -0.00    -0.00  -0.00   0.00
  47   8     0.02   0.01  -0.01    -0.01  -0.00  -0.02    -0.00  -0.00  -0.00
  48   7    -0.02  -0.01   0.01     0.13   0.04  -0.07    -0.00   0.00   0.00
  49   1     0.02  -0.01  -0.02    -0.14   0.01   0.08     0.00   0.00   0.00
  50   1     0.01  -0.01  -0.00    -0.29  -0.03   0.17     0.01   0.01  -0.01
  51   7     0.00   0.00  -0.00    -0.03   0.00   0.02     0.01  -0.00   0.01
  52   1     0.00   0.00  -0.01     0.05  -0.02  -0.03     0.01  -0.00  -0.01
  53   1    -0.02  -0.01   0.00     0.02  -0.01  -0.01    -0.00  -0.00   0.00
                     40                     41                     42
                        a                      a                      a 
 Frequencies --   434.2495               443.7838               453.8932
 Red. masses --     3.1436                 1.5273                 4.2222
 Frc consts  --     0.0000                 0.0000                 0.0000
 IR Inten    --   273.9749                 4.0559                11.6426
 Raman Activ --     0.0000                 0.0000                 0.0000
 Depolar     --     0.0000                 0.0000                 0.0000
 Atom AN      X      Y      Z        X      Y      Z        X      Y      Z
   1   8    -0.01  -0.01   0.00    -0.00   0.01  -0.00    -0.00  -0.01   0.01
   2   6     0.01   0.01  -0.01    -0.00   0.01  -0.01     0.02   0.02  -0.04
   3   1     0.01   0.00  -0.01    -0.00   0.00  -0.00     0.00   0.00  -0.00
   4   1     0.00   0.01   0.00    -0.00   0.00  -0.01    -0.00   0.01  -0.02
   5   6     0.00   0.01  -0.00     0.02  -0.00  -0.01     0.05   0.03  -0.02
   6   1    -0.00   0.00  -0.00     0.01  -0.00  -0.01     0.01   0.02  -0.01
   7   1     0.00   0.00   0.00     0.00  -0.00  -0.01     0.02   0.01   0.00
   8   7     0.00   0.00  -0.00     0.03  -0.01   0.01     0.04   0.02  -0.01
   9   6    -0.00  -0.00   0.01    -0.02  -0.02  -0.01    -0.02  -0.03  -0.00
  10   1     0.00   0.00   0.00    -0.02   0.00  -0.00    -0.01   0.01  -0.01
  11   1     0.00  -0.00   0.00    -0.01  -0.01  -0.01     0.01  -0.03   0.01
  12   1    -0.00  -0.00   0.00    -0.01  -0.01  -0.01    -0.04  -0.02   0.00
  13   6    -0.01  -0.00   0.00    -0.00  -0.01   0.02    -0.05  -0.01   0.00
  14   1    -0.00  -0.00   0.00     0.01  -0.01   0.00    -0.02  -0.02   0.01
  15   1    -0.00  -0.00   0.00    -0.01  -0.01   0.01    -0.02  -0.01   0.01
  16   1    -0.00   0.00  -0.00    -0.01   0.01   0.01    -0.03   0.01  -0.01
  17   6    -0.00  -0.01   0.01     0.00   0.03   0.01    -0.01  -0.00   0.05
  18   1    -0.01  -0.00   0.01     0.01   0.01   0.00    -0.02  -0.01   0.03
  19   1     0.00  -0.01   0.01    -0.00   0.02   0.01     0.01  -0.00   0.03
  20   1     0.00   0.00  -0.00    -0.01   0.00   0.00    -0.01   0.00   0.00
  21   1     0.01   0.01  -0.02    -0.00   0.00  -0.00     0.01   0.01  -0.01
  22   6    -0.02   0.01   0.02     0.00  -0.00  -0.00     0.11  -0.12  -0.10
  23   8    -0.03   0.01   0.02     0.00  -0.00  -0.00     0.17  -0.10  -0.05
  24   7    -0.00   0.02  -0.07     0.00   0.00   0.00     0.04   0.16   0.16
  25   1     0.05  -0.02  -0.03    -0.00   0.00   0.00    -0.16   0.05   0.13
  26   1    -0.06  -0.13   0.05     0.00   0.00   0.00     0.13   0.09   0.15
  27   7     0.08   0.02  -0.04    -0.00   0.00  -0.00    -0.23   0.04  -0.09
  28   1    -0.04  -0.13   0.17    -0.00  -0.00  -0.00    -0.18  -0.08  -0.03
  29   1     0.03   0.01  -0.03    -0.00   0.00   0.00    -0.10   0.08   0.09
  30   6    -0.11  -0.01   0.12     0.00  -0.00  -0.00     0.00  -0.00   0.02
  31   8    -0.03  -0.01   0.05     0.00  -0.00  -0.00    -0.02  -0.00   0.00
  32   7     0.13   0.01  -0.14    -0.00   0.00   0.00     0.02  -0.02  -0.01
  33   1    -0.04   0.00   0.04     0.00   0.00  -0.00     0.01  -0.01   0.00
  34   1    -0.07  -0.00   0.09     0.00   0.00  -0.00    -0.01  -0.01   0.00
  35   7     0.19   0.01  -0.21    -0.00   0.00   0.00     0.01   0.02  -0.01
  36   1    -0.59  -0.03   0.62     0.00   0.00  -0.01    -0.06  -0.00   0.05
  37   1    -0.03   0.01   0.04     0.00   0.00  -0.00     0.01   0.02  -0.01
  38   6    -0.00  -0.00  -0.00    -0.04  -0.02   0.03    -0.05  -0.02   0.03
  39   8    -0.00   0.00   0.00    -0.04  -0.02   0.03    -0.05  -0.02   0.04
  40   7     0.00   0.00  -0.00    -0.03   0.12  -0.01     0.06   0.05   0.03
  41   1     0.00  -0.00  -0.00     0.34  -0.33   0.13     0.02   0.04  -0.05
  42   1    -0.00   0.01  -0.00    -0.21   0.40  -0.12     0.04   0.02   0.05
  43   7     0.00  -0.00  -0.00     0.06  -0.10  -0.00     0.01  -0.02  -0.08
  44   1     0.00  -0.00   0.00     0.28  -0.39   0.07    -0.03  -0.01  -0.06
  45   1    -0.00   0.00  -0.00    -0.22   0.40  -0.24     0.06  -0.00  -0.01
  46   6    -0.01   0.01   0.01    -0.00  -0.00  -0.00     0.01  -0.01  -0.00
  47   8     0.01   0.01   0.01    -0.00  -0.00  -0.00     0.03  -0.01  -0.02
  48   7     0.00  -0.01  -0.00    -0.00   0.00   0.00    -0.10   0.01   0.05
  49   1     0.01  -0.01  -0.01     0.00   0.00  -0.00     0.23  -0.03  -0.19
  50   1     0.03  -0.01  -0.01    -0.01   0.00   0.00    -0.15  -0.04   0.12
  51   7    -0.03   0.01  -0.00     0.00   0.00   0.00     0.03   0.04   0.04
  52   1    -0.00  -0.00   0.01     0.01  -0.00  -0.00     0.31  -0.01  -0.43
  53   1     0.05  -0.01  -0.03    -0.01  -0.00   0.00    -0.34  -0.13   0.14
                     43                     44                     45
                        a                      a                      a 
 Frequencies --   454.9978               464.3492               467.9499
 Red. masses --     8.1729                 7.7980                 6.7530
 Frc consts  --     0.0000                 0.0000                 0.0000
 IR Inten    --     5.2559                 4.2261                48.4755
 Raman Activ --     0.0000                 0.0000                 0.0000
 Depolar     --     0.0000                 0.0000                 0.0000
 Atom AN      X      Y      Z        X      Y      Z        X      Y      Z
   1   8    -0.01   0.02  -0.03     0.02  -0.01   0.04    -0.00   0.02  -0.04
   2   6    -0.04  -0.03   0.09     0.01  -0.01  -0.00    -0.03  -0.02   0.07
   3   1     0.00  -0.00   0.01    -0.01  -0.02   0.02    -0.00   0.00   0.01
   4   1     0.00  -0.02   0.05    -0.01  -0.00  -0.03     0.00  -0.02   0.03
   5   6    -0.11  -0.08   0.06     0.03   0.14   0.07    -0.07  -0.11   0.01
   6   1    -0.00  -0.05   0.02    -0.11   0.12   0.05     0.05  -0.09  -0.01
   7   1    -0.06  -0.03  -0.01     0.13   0.09   0.09    -0.10  -0.06  -0.05
   8   7    -0.09  -0.01   0.06    -0.04  -0.14  -0.20    -0.04   0.06   0.12
   9   6     0.02   0.10  -0.01     0.20  -0.16   0.02    -0.08   0.13  -0.01
  10   1     0.02   0.02  -0.02     0.11  -0.09  -0.02    -0.03   0.06  -0.01
  11   1    -0.00   0.07   0.01     0.08  -0.03   0.05    -0.03   0.05  -0.00
  12   1     0.03   0.02  -0.02     0.03  -0.01   0.06    -0.01   0.01  -0.04
  13   6     0.11  -0.01  -0.03    -0.03   0.18   0.10     0.08  -0.08  -0.08
  14   1     0.05   0.01  -0.04    -0.03   0.14  -0.01     0.05  -0.05  -0.03
  15   1     0.03   0.02  -0.04     0.02   0.01   0.13     0.00   0.00  -0.09
  16   1     0.07  -0.03   0.02    -0.01   0.10   0.05     0.05  -0.06  -0.01
  17   6     0.04   0.01  -0.09    -0.20  -0.06  -0.12     0.12   0.03  -0.02
  18   1     0.05   0.01  -0.05    -0.05  -0.00  -0.02     0.05   0.00  -0.02
  19   1    -0.02  -0.00  -0.07    -0.05   0.02  -0.00     0.01  -0.01  -0.04
  20   1     0.04   0.00  -0.00    -0.11  -0.04  -0.04     0.08   0.02   0.01
  21   1    -0.00   0.01  -0.01     0.01   0.00  -0.00    -0.00   0.01  -0.02
  22   6     0.03  -0.03  -0.02    -0.03   0.03   0.03    -0.07   0.12   0.08
  23   8     0.04  -0.02  -0.01    -0.05   0.03   0.01    -0.20   0.08   0.01
  24   7     0.01   0.04   0.04    -0.01  -0.04  -0.06    -0.03  -0.16  -0.12
  25   1    -0.04   0.01   0.03     0.02  -0.06   0.02     0.18  -0.02  -0.16
  26   1     0.03   0.02   0.04    -0.02   0.01  -0.06    -0.14  -0.13  -0.11
  27   7    -0.06   0.01  -0.02     0.06  -0.02   0.03     0.22  -0.01   0.08
  28   1    -0.04  -0.02  -0.01     0.04   0.01   0.02     0.16   0.07   0.03
  29   1    -0.02   0.02   0.02     0.03  -0.01  -0.03     0.07  -0.10  -0.01
  30   6     0.00  -0.00   0.01     0.00   0.00   0.01     0.03  -0.16   0.02
  31   8    -0.00  -0.00   0.00    -0.01  -0.00   0.00     0.06  -0.16   0.07
  32   7     0.01  -0.01  -0.00     0.00  -0.00   0.01     0.09   0.16   0.11
  33   1     0.01  -0.00  -0.00    -0.01  -0.00   0.02    -0.04   0.15  -0.05
  34   1    -0.01  -0.00   0.01     0.02  -0.00  -0.02     0.12   0.08   0.12
  35   7     0.00   0.01  -0.01    -0.00   0.00   0.01    -0.17   0.08  -0.13
  36   1    -0.02   0.00   0.02     0.02   0.00  -0.02    -0.08  -0.00  -0.15
  37   1     0.00   0.01  -0.00     0.00   0.00  -0.00    -0.04   0.12  -0.01
  38   6     0.22   0.09  -0.16     0.01   0.00  -0.01    -0.03  -0.01   0.03
  39   8     0.24   0.10  -0.18     0.01   0.01  -0.01    -0.04  -0.02   0.02
  40   7    -0.27  -0.23  -0.13    -0.01  -0.01  -0.01     0.03   0.03   0.03
  41   1    -0.13  -0.14   0.20     0.00  -0.01   0.01     0.02   0.02  -0.03
  42   1    -0.17  -0.13  -0.23    -0.01   0.00  -0.01     0.02   0.02   0.03
  43   7    -0.05   0.10   0.36    -0.00   0.00   0.02     0.01  -0.02  -0.05
  44   1     0.10   0.10   0.28     0.01   0.00   0.02    -0.02  -0.01  -0.04
  45   1    -0.27  -0.02   0.08    -0.02   0.00   0.00     0.04   0.00  -0.01
  46   6     0.00   0.01   0.00     0.02   0.20   0.08     0.01   0.04   0.01
  47   8     0.01   0.00   0.01     0.12   0.10   0.22     0.02   0.02   0.04
  48   7    -0.02  -0.01   0.01     0.04  -0.24   0.02    -0.04  -0.03   0.03
  49   1     0.05  -0.02  -0.06     0.06  -0.18  -0.29     0.17  -0.05  -0.19
  50   1    -0.03  -0.02   0.04     0.00  -0.22   0.23    -0.10  -0.07   0.13
  51   7    -0.00   0.01  -0.00    -0.16   0.05  -0.27     0.00   0.04  -0.03
  52   1     0.07   0.00  -0.11    -0.12   0.08  -0.10     0.14   0.01  -0.24
  53   1    -0.08  -0.04   0.03    -0.01  -0.09  -0.10    -0.16  -0.08   0.05
                     46                     47                     48
                        a                      a                      a 
 Frequencies --   469.4517               476.2418               484.1175
 Red. masses --     8.0125                 8.0824                 3.0859
 Frc consts  --     0.0000                 0.0000                 0.0000
 IR Inten    --     0.7050                13.0930                26.8173
 Raman Activ --     0.0000                 0.0000                 0.0000
 Depolar     --     0.0000                 0.0000                 0.0000
 Atom AN      X      Y      Z        X      Y      Z        X      Y      Z
   1   8    -0.03   0.03  -0.08     0.01   0.01  -0.01    -0.01  -0.00  -0.01
   2   6    -0.08  -0.06   0.16    -0.06  -0.08   0.18     0.00   0.00  -0.01
   3   1     0.00  -0.00   0.02    -0.00  -0.02   0.04     0.00  -0.00  -0.00
   4   1     0.00  -0.04   0.08    -0.00  -0.05   0.07    -0.00   0.00  -0.00
   5   6    -0.18  -0.19   0.08    -0.18   0.00   0.19     0.01  -0.00  -0.01
   6   1     0.04  -0.14   0.01    -0.12   0.04   0.08     0.01  -0.01  -0.01
   7   1    -0.15  -0.09  -0.05     0.03   0.04   0.09    -0.01  -0.01  -0.01
   8   7    -0.14   0.03   0.16    -0.21  -0.16  -0.09     0.02   0.02   0.01
   9   6    -0.04   0.22  -0.02     0.27   0.04   0.02    -0.02   0.00  -0.00
  10   1     0.00   0.07  -0.02     0.18  -0.06  -0.05    -0.01   0.01   0.00
  11   1    -0.03   0.12   0.00     0.08   0.10   0.08    -0.01  -0.01  -0.01
  12   1     0.03   0.04  -0.05     0.10   0.04   0.03    -0.01  -0.00  -0.00
  13   6     0.21  -0.07  -0.10     0.20   0.20   0.05    -0.01  -0.02  -0.01
  14   1     0.10  -0.03  -0.07     0.06   0.17  -0.08    -0.00  -0.02   0.01
  15   1     0.04   0.02  -0.12     0.10   0.05   0.06    -0.01  -0.00  -0.01
  16   1     0.12  -0.08   0.03     0.12   0.04   0.10    -0.01  -0.01  -0.01
  17   6     0.16   0.04  -0.14    -0.11  -0.06  -0.33     0.01   0.01   0.03
  18   1     0.10   0.01  -0.08     0.04   0.01  -0.11    -0.00  -0.00   0.01
  19   1    -0.01  -0.01  -0.13    -0.08  -0.00  -0.14     0.01  -0.00   0.01
  20   1     0.12   0.03  -0.00    -0.01  -0.02  -0.07     0.00   0.00   0.01
  21   1    -0.01   0.01  -0.02     0.01   0.01  -0.02    -0.00   0.00  -0.00
  22   6     0.03  -0.05  -0.03     0.02  -0.02  -0.01     0.04  -0.07   0.04
  23   8     0.09  -0.02   0.00     0.01  -0.03  -0.01    -0.04  -0.11  -0.04
  24   7     0.01   0.08   0.03     0.01   0.01   0.05     0.03  -0.03   0.21
  25   1    -0.11  -0.04   0.13     0.03   0.09  -0.09     0.24   0.50  -0.59
  26   1     0.08   0.09   0.03    -0.01  -0.05   0.05    -0.11  -0.25   0.15
  27   7    -0.09  -0.01  -0.03    -0.04   0.03  -0.02    -0.05   0.12  -0.07
  28   1    -0.07  -0.04   0.00    -0.03  -0.00  -0.02    -0.02   0.08  -0.13
  29   1    -0.02   0.05  -0.01    -0.02   0.01   0.03    -0.05  -0.02   0.10
  30   6    -0.01   0.10   0.01     0.00  -0.05  -0.01    -0.00   0.09  -0.00
  31   8    -0.05   0.09  -0.04     0.03  -0.05   0.02    -0.05   0.09  -0.04
  32   7    -0.04  -0.11  -0.05     0.02   0.05   0.02    -0.04  -0.09  -0.04
  33   1     0.04  -0.09   0.02    -0.01   0.05  -0.02     0.04  -0.08   0.01
  34   1    -0.08  -0.05  -0.06     0.03   0.03   0.05    -0.08  -0.05  -0.06
  35   7     0.10  -0.03   0.08    -0.05   0.02  -0.05     0.09  -0.03   0.09
  36   1     0.05   0.01   0.07    -0.06  -0.00  -0.01     0.08   0.01   0.05
[...]
  44   1    -0.00  -0.00   0.00    -0.00  -0.00   0.00     0.00   0.00  -0.00
  45   1     0.00   0.00  -0.00     0.00  -0.00  -0.00    -0.00   0.00   0.00
  46   6    -0.00   0.00  -0.00    -0.00   0.01  -0.01    -0.01  -0.00  -0.00
  47   8     0.00  -0.00   0.00    -0.00  -0.00  -0.00     0.00   0.00   0.00
  48   7     0.00  -0.00   0.00     0.00  -0.00   0.00     0.00   0.01   0.01
  49   1    -0.00  -0.00   0.00     0.00  -0.01   0.00    -0.00   0.01  -0.00
  50   1    -0.00   0.00   0.00     0.00   0.01   0.00    -0.01  -0.03  -0.02
  51   7    -0.02   0.00  -0.04    -0.05   0.09  -0.19    -0.15  -0.18  -0.15
  52   1    -0.00  -0.00  -0.00    -0.17  -0.24  -0.12     0.48   0.72   0.30
  53   1     0.07  -0.02   0.14     0.37  -0.10   0.83     0.10  -0.05   0.26
                    142                    143                    144
                        a                      a                      a 
 Frequencies --  3488.1843              3491.6876              3493.5580
 Red. masses --     1.4684                 1.4516                 1.4460
 Frc consts  --     0.0000                 0.0000                 0.0000
 IR Inten    --    36.1401                15.4330                24.1519
 Raman Activ --     0.0000                 0.0000                 0.0000
 Depolar     --     0.0000                 0.0000                 0.0000
 Atom AN      X      Y      Z        X      Y      Z        X      Y      Z
   1   8     0.00   0.00   0.00     0.00   0.00   0.00    -0.00  -0.00  -0.00
   2   6    -0.00   0.00   0.00    -0.00  -0.00  -0.00    -0.00  -0.00   0.00
   3   1     0.00   0.00   0.00     0.00   0.00   0.00    -0.00  -0.00  -0.00
   4   1     0.00  -0.00  -0.00     0.00  -0.00  -0.00     0.00   0.00  -0.00
   5   6     0.00  -0.00   0.00     0.00   0.00   0.00    -0.00  -0.00  -0.00
   6   1    -0.00  -0.00  -0.00    -0.00  -0.00  -0.00     0.00   0.00   0.00
   7   1     0.00  -0.00   0.00     0.00   0.00  -0.00     0.00  -0.00  -0.00
   8   7     0.00  -0.00   0.00    -0.00  -0.00   0.00     0.00  -0.00   0.00
   9   6     0.00  -0.00   0.00     0.00   0.00   0.00    -0.00  -0.00  -0.00
  10   1    -0.00  -0.00   0.00    -0.00  -0.00  -0.00     0.00   0.00   0.00
  11   1     0.00  -0.00  -0.00    -0.00   0.00   0.00     0.00   0.00  -0.00
  12   1    -0.00   0.00  -0.00     0.00  -0.00   0.00    -0.00   0.00  -0.00
  13   6     0.00   0.00   0.00     0.00   0.00  -0.00    -0.00  -0.00  -0.00
  14   1    -0.00  -0.00  -0.00    -0.00   0.00   0.00     0.00   0.00   0.00
  15   1     0.00   0.00  -0.00     0.00  -0.00  -0.00     0.00  -0.00  -0.00
  16   1    -0.00  -0.00   0.00    -0.00  -0.00   0.00    -0.00  -0.00  -0.00
  17   6    -0.00  -0.00   0.00     0.00   0.00  -0.00    -0.00  -0.00   0.00
  18   1     0.00   0.00  -0.00    -0.00   0.00   0.00     0.00  -0.00   0.00
  19   1     0.00   0.00  -0.00    -0.00  -0.00   0.00     0.00   0.00  -0.00
  20   1     0.00   0.00   0.00     0.00  -0.00  -0.00     0.00  -0.00  -0.00
  21   1    -0.02  -0.02  -0.01    -0.00  -0.00  -0.00     0.00   0.00   0.00
  22   6     0.00  -0.00   0.00    -0.00  -0.00   0.00     0.00  -0.00  -0.00
  23   8    -0.00   0.00  -0.00     0.00  -0.00  -0.00    -0.00   0.00   0.00
  24   7    -0.00  -0.00  -0.00    -0.18  -0.02  -0.03     0.03   0.00   0.00
  25   1     0.00   0.00   0.00     0.23   0.46   0.45    -0.03  -0.07  -0.07
  26   1     0.00  -0.00  -0.00     0.44  -0.39  -0.36    -0.07   0.06   0.05
  27   7    -0.00  -0.00  -0.00     0.01  -0.00   0.00    -0.00   0.00   0.00
  28   1    -0.01   0.01   0.00    -0.01   0.02   0.01     0.00  -0.00  -0.00
  29   1     0.02  -0.00   0.01    -0.02   0.00  -0.01     0.00  -0.00   0.00
  30   6     0.00  -0.00   0.00    -0.00  -0.00  -0.00     0.00  -0.00   0.00
  31   8    -0.00   0.00  -0.00     0.00  -0.00   0.00    -0.00   0.00  -0.00
  32   7     0.14   0.00   0.13    -0.00  -0.00  -0.00    -0.00   0.00  -0.00
  33   1    -0.39  -0.56  -0.40     0.00   0.00   0.00     0.00   0.00   0.00
  34   1    -0.12   0.56  -0.08     0.00  -0.00   0.00     0.00  -0.00   0.00
  35   7    -0.01   0.01  -0.01     0.00   0.00   0.00    -0.00   0.00  -0.00
  36   1     0.01  -0.03   0.00     0.00  -0.00   0.00    -0.00  -0.00  -0.00
  37   1     0.01  -0.00   0.01    -0.01   0.00  -0.00     0.00  -0.00   0.00
  38   6     0.00  -0.00  -0.00    -0.00  -0.00   0.00     0.00   0.00  -0.00
  39   8    -0.00  -0.00   0.00     0.00   0.00  -0.00    -0.00  -0.00   0.00
  40   7     0.00  -0.00  -0.00    -0.00  -0.00  -0.00    -0.00   0.00   0.00
  41   1     0.00   0.00   0.00     0.00   0.00   0.00    -0.00  -0.00  -0.00
  42   1    -0.00  -0.00   0.00    -0.00  -0.00   0.00     0.00   0.00  -0.00
  43   7    -0.00  -0.00   0.00     0.00   0.00   0.00    -0.00  -0.00  -0.00
  44   1     0.00   0.00  -0.00     0.00   0.00  -0.00     0.00   0.00  -0.00
  45   1    -0.00   0.00   0.00    -0.00   0.00   0.00    -0.00   0.00   0.00
  46   6    -0.00  -0.00  -0.00     0.00  -0.00   0.00     0.00   0.00   0.00
  47   8     0.00   0.00   0.00    -0.00  -0.00  -0.00    -0.00  -0.00  -0.00
  48   7     0.00   0.00   0.00     0.01  -0.00   0.02     0.08  -0.01   0.16
  49   1    -0.00   0.00  -0.00    -0.02   0.09  -0.03    -0.13   0.61  -0.23
  50   1    -0.00  -0.01  -0.00    -0.02  -0.09  -0.06    -0.15  -0.58  -0.38
  51   7    -0.00  -0.00  -0.01     0.00   0.01   0.00     0.00   0.01   0.00
  52   1     0.01   0.01   0.00    -0.01  -0.02  -0.01    -0.02  -0.02  -0.01
  53   1     0.01  -0.00   0.03    -0.00   0.00  -0.00     0.00   0.00  -0.00
                    145                    146                    147
                        a                      a                      a 
 Frequencies --  3501.3553              3505.6600              3535.1548
 Red. masses --     1.4380                 1.4622                 1.8921
 Frc consts  --     0.0000                 0.0000                 0.0000
 IR Inten    --    39.2758                 8.1054                15.1858
 Raman Activ --     0.0000                 0.0000                 0.0000
 Depolar     --     0.0000                 0.0000                 0.0000
 Atom AN      X      Y      Z        X      Y      Z        X      Y      Z
   1   8     0.00   0.00   0.00    -0.00  -0.00  -0.00    -0.00  -0.00  -0.00
   2   6    -0.00  -0.00  -0.00    -0.00  -0.00  -0.00    -0.00   0.00   0.00
   3   1     0.00   0.00   0.00    -0.00   0.00  -0.00    -0.00  -0.00  -0.00
   4   1    -0.00  -0.00   0.00    -0.00  -0.00   0.00     0.00  -0.00   0.00
   5   6     0.00   0.00   0.00     0.00  -0.00  -0.00     0.00   0.00   0.00
   6   1     0.00  -0.00  -0.00     0.00   0.00   0.00    -0.00  -0.00  -0.00
   7   1    -0.00   0.00   0.00    -0.00   0.00   0.00    -0.00  -0.00   0.00
   8   7     0.00   0.00   0.00     0.00   0.00   0.00    -0.00  -0.00  -0.00
   9   6     0.00   0.00  -0.00    -0.00  -0.00   0.00     0.00   0.00   0.00
  10   1     0.00   0.00   0.00    -0.00  -0.00   0.00    -0.00  -0.00  -0.00
  11   1    -0.00  -0.00  -0.00     0.00   0.00  -0.00    -0.00  -0.00  -0.00
  12   1    -0.00   0.00  -0.00    -0.00  -0.00   0.00     0.00  -0.00   0.00
  13   6     0.00  -0.00  -0.00    -0.00  -0.00   0.00     0.00   0.00   0.00
  14   1     0.00  -0.00  -0.00    -0.00   0.00   0.00    -0.00  -0.00  -0.00
  15   1    -0.00   0.00   0.00    -0.00  -0.00   0.00     0.00  -0.00  -0.00
  16   1    -0.00  -0.00  -0.00     0.00   0.00  -0.00    -0.00  -0.00   0.00
  17   6    -0.00  -0.00   0.00    -0.00  -0.00   0.00    -0.00   0.00  -0.00
  18   1     0.00  -0.00   0.00     0.00  -0.00   0.00     0.00  -0.00   0.00
  19   1     0.00  -0.00  -0.00     0.00   0.00  -0.00    -0.00  -0.00   0.00
  20   1    -0.00   0.00   0.00    -0.00   0.00   0.00     0.00  -0.00  -0.00
  21   1    -0.00  -0.00  -0.00     0.00   0.00   0.00     0.00  -0.00  -0.00
  22   6     0.00  -0.00  -0.00    -0.00   0.00   0.00     0.00  -0.00  -0.00
  23   8    -0.00   0.00   0.00     0.00  -0.00  -0.00    -0.00   0.00   0.00
  24   7    -0.00  -0.00  -0.00     0.00  -0.00   0.00    -0.00   0.00   0.00
  25   1     0.00   0.00   0.00    -0.00  -0.00  -0.00    -0.00  -0.01  -0.01
  26   1     0.00  -0.00  -0.00    -0.00   0.00   0.00     0.01  -0.01  -0.01
  27   7     0.00  -0.00   0.00    -0.00   0.00  -0.00     0.01  -0.01  -0.00
  28   1    -0.00   0.00   0.00     0.00  -0.00  -0.00    -0.02   0.03   0.01
  29   1     0.00  -0.00  -0.00     0.00   0.00   0.00    -0.01  -0.00  -0.00
  30   6    -0.00   0.00  -0.00     0.00   0.00   0.00     0.01  -0.01   0.00
  31   8    -0.00   0.00   0.00    -0.00  -0.00  -0.00    -0.00   0.00  -0.00
  32   7     0.00  -0.00   0.00    -0.00   0.00  -0.00     0.01   0.03   0.01
  33   1    -0.00  -0.00  -0.00     0.00   0.00   0.00    -0.04  -0.06  -0.05
  34   1    -0.00   0.00  -0.00     0.00  -0.00   0.00     0.02  -0.07   0.01
  35   7    -0.00   0.00   0.00     0.00  -0.00  -0.00     0.06  -0.25   0.04
  36   1     0.00  -0.00  -0.00    -0.00   0.00  -0.00    -0.19   0.93  -0.13
  37   1     0.00   0.00  -0.00     0.00  -0.00   0.00    -0.05  -0.00  -0.04
  38   6    -0.00   0.00   0.00     0.00   0.00  -0.00    -0.00  -0.00   0.00
  39   8     0.00   0.00   0.00    -0.00  -0.00   0.00     0.00   0.00  -0.00
  40   7    -0.04   0.05   0.11     0.03  -0.05  -0.12    -0.00  -0.00   0.00
  41   1    -0.28  -0.33  -0.16     0.29   0.34   0.17    -0.00  -0.00  -0.00
  42   1     0.42   0.15  -0.27    -0.41  -0.14   0.26     0.00   0.00  -0.00
  43   7     0.08   0.10   0.03     0.08   0.10   0.03    -0.00  -0.00   0.00
  44   1    -0.37  -0.20   0.32    -0.36  -0.19   0.31     0.00   0.00  -0.00
  45   1     0.07  -0.18  -0.42     0.07  -0.18  -0.42    -0.00   0.00   0.00
  46   6     0.00  -0.00  -0.00     0.00   0.00   0.00    -0.00  -0.00  -0.00
  47   8    -0.00   0.00   0.00    -0.00  -0.00  -0.00     0.00   0.00   0.00
  48   7    -0.00   0.00  -0.00     0.00  -0.00   0.00     0.00  -0.00   0.00
  49   1     0.00  -0.00   0.00    -0.00   0.00  -0.00    -0.00   0.00  -0.00
  50   1     0.00   0.00   0.00    -0.00  -0.00  -0.00     0.00   0.00   0.00
  51   7    -0.00  -0.00   0.00     0.00   0.00  -0.00     0.00   0.00   0.00
  52   1     0.00   0.00   0.00    -0.00  -0.00  -0.00    -0.00  -0.00  -0.00
  53   1    -0.00   0.00  -0.00     0.00  -0.00   0.00     0.00   0.00   0.00
                    148                    149                    150
                        a                      a                      a 
 Frequencies --  3540.0807              3555.9276              3558.3740
 Red. masses --     1.9432                 2.1718                 2.1675
 Frc consts  --     0.0000                 0.0000                 0.0000
 IR Inten    --    16.6418                14.0358                29.1347
 Raman Activ --     0.0000                 0.0000                 0.0000
 Depolar     --     0.0000                 0.0000                 0.0000
 Atom AN      X      Y      Z        X      Y      Z        X      Y      Z
   1   8     0.00   0.00   0.00     0.00   0.00   0.00    -0.00  -0.00  -0.00
   2   6     0.00  -0.00  -0.00     0.00  -0.00  -0.00     0.00  -0.00  -0.00
   3   1     0.00   0.00   0.00     0.00   0.00   0.00    -0.00  -0.00  -0.00
   4   1    -0.00  -0.00  -0.00    -0.00  -0.00  -0.00    -0.00   0.00   0.00
   5   6     0.00   0.00  -0.00    -0.00   0.00  -0.00    -0.00   0.00  -0.00
   6   1    -0.00  -0.00   0.00    -0.00  -0.00   0.00     0.00   0.00  -0.00
   7   1     0.00   0.00   0.00     0.00   0.00  -0.00    -0.00   0.00  -0.00
   8   7    -0.00   0.00   0.00     0.00   0.00   0.00    -0.00   0.00  -0.00
   9   6    -0.00   0.00  -0.00    -0.00  -0.00  -0.00    -0.00   0.00  -0.00
  10   1     0.00   0.00   0.00     0.00   0.00   0.00    -0.00   0.00  -0.00
  11   1     0.00   0.00  -0.00     0.00   0.00  -0.00    -0.00  -0.00   0.00
  12   1    -0.00  -0.00   0.00    -0.00  -0.00   0.00     0.00  -0.00   0.00
  13   6     0.00  -0.00  -0.00    -0.00  -0.00  -0.00     0.00  -0.00  -0.00
  14   1     0.00  -0.00   0.00     0.00   0.00   0.00     0.00   0.00   0.00
  15   1     0.00   0.00   0.00     0.00  -0.00  -0.00     0.00  -0.00   0.00
  16   1    -0.00   0.00   0.00     0.00   0.00  -0.00    -0.00  -0.00   0.00
  17   6     0.00  -0.00  -0.00     0.00   0.00   0.00     0.00   0.00  -0.00
  18   1    -0.00   0.00  -0.00    -0.00   0.00  -0.00     0.00  -0.00   0.00
  19   1    -0.00  -0.00   0.00     0.00   0.00  -0.00    -0.00  -0.00   0.00
  20   1     0.00  -0.00   0.00     0.00  -0.00  -0.00    -0.00  -0.00  -0.00
  21   1    -0.00  -0.00  -0.00    -0.00  -0.00  -0.00     0.01   0.01   0.00
  22   6    -0.01   0.00  -0.00    -0.00   0.01   0.01     0.00  -0.00  -0.00
  23   8     0.00  -0.00   0.00     0.00  -0.00  -0.00    -0.00   0.00   0.00
  24   7     0.00  -0.04  -0.04    -0.05   0.21   0.20     0.00  -0.01  -0.01
  25   1     0.05   0.09   0.09    -0.25  -0.44  -0.43     0.01   0.02   0.02
  26   1    -0.06   0.05   0.05     0.45  -0.36  -0.33    -0.02   0.02   0.01
  27   7    -0.18   0.18   0.08    -0.03   0.03   0.01     0.01  -0.00  -0.00
  28   1     0.55  -0.68  -0.33     0.09  -0.12  -0.06    -0.01   0.01   0.01
  29   1     0.12   0.01   0.04     0.02   0.00   0.01    -0.01   0.00  -0.00
  30   6     0.00   0.00   0.00    -0.00   0.00  -0.00    -0.00  -0.01  -0.00
  31   8     0.00  -0.00  -0.00     0.00  -0.00  -0.00     0.00   0.00   0.00
  32   7     0.00  -0.00   0.00    -0.00  -0.01  -0.00    -0.02  -0.29  -0.04
  33   1    -0.00  -0.00  -0.00     0.01   0.02   0.01     0.28   0.37   0.29
  34   1    -0.00   0.01  -0.00    -0.01   0.04  -0.01    -0.18   0.74  -0.12
  35   7     0.00  -0.01   0.00    -0.00   0.00  -0.00     0.01  -0.03   0.01
  36   1    -0.01   0.04  -0.01     0.00  -0.00   0.00    -0.02   0.11  -0.01
  37   1     0.00  -0.00   0.00     0.01  -0.00   0.00    -0.01   0.00  -0.01
  38   6    -0.00  -0.00   0.00     0.00  -0.00  -0.00    -0.00  -0.00   0.00
  39   8     0.00   0.00  -0.00    -0.00   0.00   0.00     0.00   0.00  -0.00
  40   7    -0.00  -0.00   0.00    -0.00  -0.00   0.00     0.00   0.00  -0.00
  41   1    -0.00  -0.00   0.00     0.00   0.00   0.00    -0.00  -0.00  -0.00
  42   1     0.00   0.00  -0.00     0.00   0.00  -0.00    -0.00  -0.00   0.00
  43   7     0.00   0.00  -0.00     0.00  -0.00  -0.00    -0.00   0.00   0.00
  44   1    -0.00  -0.00   0.00    -0.00  -0.00   0.00     0.00   0.00  -0.00
  45   1    -0.00   0.00   0.00    -0.00   0.00   0.00     0.00  -0.00  -0.00
  46   6    -0.00   0.00   0.00    -0.00  -0.00   0.00     0.00   0.00   0.00
  47   8    -0.00  -0.00  -0.00    -0.00  -0.00  -0.00    -0.00  -0.00  -0.00
  48   7    -0.00  -0.00  -0.00    -0.00  -0.01  -0.00     0.00  -0.00  -0.00
  49   1    -0.00   0.00  -0.00    -0.00   0.01  -0.00    -0.00   0.00  -0.00
  50   1     0.00   0.00   0.00     0.00   0.01   0.01     0.00   0.00   0.00
  51   7    -0.00   0.00  -0.00    -0.00  -0.00  -0.00     0.00   0.00   0.00
  52   1    -0.00  -0.00  -0.00     0.00   0.00   0.00    -0.00  -0.00  -0.00
  53   1     0.00  -0.00   0.01     0.00  -0.00   0.00    -0.00   0.00  -0.01
                    151                    152                    153
                        a                      a                      a 
 Frequencies --  3560.3720              3566.0122              3571.5275
 Red. masses --     2.1837                 2.1910                 2.1779
 Frc consts  --     0.0000                 0.0000                 0.0000
 IR Inten    --     9.5708                13.7369                11.7714
 Raman Activ --     0.0000                 0.0000                 0.0000
 Depolar     --     0.0000                 0.0000                 0.0000
 Atom AN      X      Y      Z        X      Y      Z        X      Y      Z
   1   8     0.00   0.00   0.00     0.00   0.00   0.00    -0.00  -0.00  -0.00
   2   6    -0.00  -0.00  -0.00     0.00  -0.00  -0.00     0.00   0.00   0.00
   3   1    -0.00   0.00  -0.00     0.00   0.00   0.00    -0.00  -0.00  -0.00
   4   1    -0.00  -0.00   0.00    -0.00  -0.00   0.00    -0.00  -0.00   0.00
   5   6    -0.00  -0.00  -0.00     0.00   0.00   0.00     0.00  -0.00  -0.00
   6   1     0.00   0.00   0.00    -0.00  -0.00  -0.00     0.00   0.00   0.00
   7   1    -0.00   0.00   0.00    -0.00   0.00   0.00    -0.00  -0.00   0.00
   8   7     0.00  -0.00   0.00     0.00   0.00   0.00     0.00   0.00  -0.00
   9   6    -0.00  -0.00  -0.00     0.00   0.00  -0.00    -0.00  -0.00   0.00
  10   1     0.00  -0.00   0.00     0.00   0.00  -0.00    -0.00   0.00   0.00
  11   1     0.00   0.00  -0.00    -0.00  -0.00   0.00     0.00   0.00  -0.00
  12   1    -0.00  -0.00  -0.00     0.00   0.00  -0.00    -0.00   0.00   0.00
  13   6    -0.00  -0.00  -0.00     0.00   0.00  -0.00    -0.00  -0.00   0.00
  14   1     0.00   0.00   0.00    -0.00  -0.00  -0.00     0.00   0.00   0.00
  15   1    -0.00  -0.00  -0.00     0.00   0.00  -0.00    -0.00  -0.00   0.00
  16   1    -0.00   0.00  -0.00    -0.00  -0.00   0.00     0.00   0.00  -0.00
  17   6    -0.00  -0.00   0.00    -0.00  -0.00   0.00    -0.00  -0.00   0.00
  18   1    -0.00   0.00  -0.00    -0.00  -0.00   0.00    -0.00  -0.00   0.00
  19   1     0.00   0.00  -0.00     0.00   0.00  -0.00     0.00   0.00  -0.00
  20   1    -0.00   0.00  -0.00    -0.00   0.00   0.00    -0.00  -0.00   0.00
  21   1    -0.00  -0.00  -0.00    -0.00  -0.00  -0.00     0.00   0.00   0.00
  22   6     0.00   0.00  -0.00     0.00   0.00  -0.00    -0.00   0.00   0.00
  23   8    -0.00  -0.00  -0.00    -0.00   0.00   0.00     0.00  -0.00  -0.00
  24   7     0.00  -0.00  -0.00    -0.00   0.00   0.00     0.00   0.00   0.00
  25   1     0.00   0.01   0.01    -0.00  -0.00  -0.00    -0.00  -0.00  -0.00
  26   1    -0.01   0.01   0.01     0.00  -0.00  -0.00     0.00  -0.00  -0.00
  27   7     0.00  -0.00  -0.00    -0.00   0.00   0.00    -0.00  -0.00  -0.00
  28   1    -0.00   0.00   0.00     0.00  -0.00  -0.00     0.00  -0.00   0.00
  29   1    -0.00  -0.00  -0.00     0.00   0.00  -0.00     0.00   0.00   0.00
  30   6    -0.00   0.00  -0.00    -0.00   0.00  -0.00     0.00   0.00   0.00
  31   8     0.00  -0.00   0.00    -0.00  -0.00   0.00    -0.00  -0.00  -0.00
  32   7     0.00   0.00   0.00     0.00   0.00   0.00    -0.00   0.00  -0.00
  33   1    -0.00  -0.00  -0.00    -0.00  -0.00  -0.00     0.00   0.00   0.00
  34   1     0.00  -0.01   0.00     0.00  -0.00   0.00     0.00  -0.00   0.00
  35   7    -0.00   0.00  -0.00    -0.00   0.00   0.00    -0.00   0.00  -0.00
  36   1     0.00  -0.00   0.00     0.00  -0.00  -0.00     0.00  -0.00   0.00
  37   1     0.00   0.00   0.00     0.00   0.00  -0.00     0.00  -0.00   0.00
  38   6     0.00   0.00  -0.00     0.00   0.01   0.01    -0.01  -0.00   0.01
  39   8    -0.00  -0.00   0.00    -0.00  -0.00  -0.00     0.00   0.00  -0.00
  40   7    -0.00  -0.00   0.00     0.16   0.12  -0.01    -0.18  -0.13   0.02
  41   1     0.00   0.00   0.00    -0.28  -0.34  -0.18     0.31   0.38   0.20
  42   1     0.00   0.00  -0.00    -0.33  -0.10   0.22     0.39   0.12  -0.27
  43   7     0.00  -0.00  -0.00    -0.11   0.01   0.20    -0.09   0.01   0.17
  44   1    -0.00  -0.00   0.00     0.33   0.19  -0.27     0.30   0.17  -0.24
  45   1    -0.00   0.00   0.00     0.07  -0.23  -0.49     0.06  -0.19  -0.42
  46   6     0.00  -0.01  -0.00     0.00  -0.00  -0.00    -0.00   0.00   0.00
  47   8    -0.00   0.00   0.00    -0.00   0.00   0.00    -0.00  -0.00  -0.00
  48   7     0.00  -0.30  -0.03    -0.00  -0.00  -0.00     0.00   0.00   0.00
  49   1    -0.15   0.63  -0.27    -0.00   0.00  -0.00     0.00  -0.00   0.00
  50   1     0.14   0.51   0.37     0.00   0.00   0.00    -0.00  -0.00  -0.00
  51   7    -0.00  -0.00  -0.00    -0.00  -0.00   0.00     0.00   0.00  -0.00
  52   1     0.01   0.02   0.01     0.00   0.00   0.00    -0.00  -0.00  -0.00
  53   1     0.00  -0.00   0.01    -0.00   0.00  -0.00     0.00  -0.00   0.00
