      -----------------------------------------------------------      
     |                   =====================                   |     
     |                           x T B                           |     
     |                   =====================                   |     
     |                         S. Grimme                         |     
     |          Mulliken Center for Theoretical Chemistry        |     
     |                    University of Bonn                     |     
      -----------------------------------------------------------      

   * xtb version 6.6.1 (unknown-commit) compiled by '@Linux' on 12/27/2023

   xtb is free software: you can redistribute it and/or modify it under
   the terms of the GNU Lesser General Public License as published by
   the Free Software Foundation, either version 3 of the License, or
   (at your option) any later version.
   
   xtb is distributed in the hope that it will be useful,
   but WITHOUT ANY WARRANTY; without even the implied warranty of
   MERCHANTABILITY or FITNESS FOR A PARTICULAR PURPOSE.  See the
   GNU Lesser General Public License for more details.
   
   Cite this work as:
   * C. Bannwarth, E. Caldeweyher, S. Ehlert, A. Hansen, P. Pracht,
     J. Seibert, S. Spicher, S. Grimme, WIREs Comput. Mol. Sci., 2020, 11,
     e01493. DOI: 10.1002/wcms.1493
   
   for GFN2-xTB:
   * C. Bannwarth, S. Ehlert and S. Grimme., J. Chem. Theory Comput., 2019,
     15, 1652-1671. DOI: 10.1021/acs.jctc.8b01176
   for GFN1-xTB:
   * S. Grimme, C. Bannwarth, P. Shushkov, J. Chem. Theory Comput., 2017,
     13, 1989-2009. DOI: 10.1021/acs.jctc.7b00118
   for GFN0-xTB:
   * P. Pracht, E. Caldeweyher, S. Ehlert, S. Grimme, ChemRxiv, 2019, preprint.
     DOI: 10.26434/chemrxiv.8326202.v1
   for GFN-FF:
   * S. Spicher and S. Grimme, Angew. Chem. Int. Ed., 2020, 59, 15665-15673.
     DOI: 10.1002/anie.202004239
   
   for ALPB and GBSA implicit solvation:
   * S. Ehlert, M. Stahn, S. Spicher, S. Grimme, J. Chem. Theory Comput.,
     2021, 17, 4250-4261. DOI: 10.1021/acs.jctc.1c00471
   
   for DFT-D4:
   * E. Caldeweyher, C. Bannwarth and S. Grimme, J. Chem. Phys., 2017,
     147, 034112. DOI: 10.1063/1.4993215
   * E. Caldeweyher, S. Ehlert, A. Hansen, H. Neugebauer, S. Spicher,
     C. Bannwarth and S. Grimme, J. Chem. Phys., 2019, 150, 154122.
     DOI: 10.1063/1.5090222
   * E. Caldeweyher, J.-M. Mewes, S. Ehlert and S. Grimme, Phys. Chem. Chem. Phys.
     2020, 22, 8499-8512. DOI: 10.1039/D0CP00502A
   
   for sTDA-xTB:
   * S. Grimme and C. Bannwarth, J. Chem. Phys., 2016, 145, 054103.
     DOI: 10.1063/1.4959605
   
   in the mass-spec context:
   * V. Asgeirsson, C. Bauer and S. Grimme, Chem. Sci., 2017, 8, 4879.
     DOI: 10.1039/c7sc00601b
   * J. Koopman and S. Grimme, ACS Omega 2019, 4, 12, 15120-15133.
     DOI: 10.1021/acsomega.9b02011
   
   for metadynamics refer to:
   * S. Grimme, J. Chem. Theory Comput., 2019, 155, 2847-2862
     DOI: 10.1021/acs.jctc.9b00143
   
   for SPH calculations refer to:
   * S. Spicher and S. Grimme, J. Chem. Theory Comput., 2021, 17, 1701-1714
     DOI: 10.1021/acs.jctc.0c01306
   
   with help from (in alphabetical order)
   P. Atkinson, C. Bannwarth, F. Bohle, G. Brandenburg, E. Caldeweyher
   M. Checinski, S. Dohm, S. Ehlert, S. Ehrlich, I. Gerasimov, C. Hölzer
   A. Katbashev, J. Koopman, C. Lavigne, S. Lehtola, F. März, M. Müller,
   F. Musil, H. Neugebauer, J. Pisarek, C. Plett, P. Pracht, F. Pultar,
   J. Seibert, P. Shushkov, S. Spicher, M. Stahn, M. Steiner, T. Strunk,
   J. Stückrath, T. Rose, and J. Unsleber
   
 * started run on 2024/01/10 at 15:35:56.884     

           -------------------------------------------------
          |                Calculation Setup                |
           -------------------------------------------------

          program call               : xtb struc.xyz --gfn2 --hess
          hostname                   : swaroop
          coordinate file            : struc.xyz
          omp threads                :                     1

   ID    Z sym.   atoms
    1    8 O      1, 23, 31, 39, 47
    2    6 C      2, 5, 9, 13, 17, 22, 30, 38, 46
    3    1 H      3, 4, 6, 7, 10-12, 14-16, 18-21, 25, 26, 28, 29, 33, 34,
                  36, 37, 41, 42, 44, 45, 49, 50, 52, 53
    4    7 N      8, 24, 27, 32, 35, 40, 43, 48, 51

molecular fragmentation (1/2 indicates fragments):
11111111111111111111122222222222222222222222222222222
# atoms in fragment 1/2:    21    32
 fragment masses (1/2) :      104.17      240.22
CMA distance (Bohr)    :   5.963
constraining FC (au)   :  0.0500

           -------------------------------------------------
          |                 G F N 2 - x T B                 |
           -------------------------------------------------

        Reference                      10.1021/acs.jctc.8b01176
      * Hamiltonian:
        H0-scaling (s, p, d)           1.850000    2.230000    2.230000
        zeta-weighting                 0.500000
      * Dispersion:
        s8                             2.700000
        a1                             0.520000
        a2                             5.000000
        s9                             5.000000
      * Repulsion:
        kExp                           1.500000    1.000000
        rExp                           1.000000
      * Coulomb:
        alpha                          2.000000
        third order                    shell-resolved
        anisotropic                    true
        a3                             3.000000
        a5                             4.000000
        cn-shift                       1.200000
        cn-exp                         4.000000
        max-rad                        5.000000


          ...................................................
          :                      SETUP                      :
          :.................................................:
          :  # basis functions                 122          :
          :  # atomic orbitals                 122          :
          :  # shells                           76          :
          :  # electrons                       140          :
          :  max. iterations                   250          :
          :  Hamiltonian                  GFN2-xTB          :
          :  restarted?                      false          :
          :  GBSA solvation                  false          :
          :  PC potential                    false          :
          :  electronic temp.          300.0000000     K    :
          :  accuracy                    1.0000000          :
          :  -> integral cutoff          0.2500000E+02      :
          :  -> integral neglect         0.1000000E-07      :
          :  -> SCF convergence          0.1000000E-05 Eh   :
          :  -> wf. convergence          0.1000000E-03 e    :
          :  Broyden damping             0.4000000          :
          ...................................................

 iter      E             dE          RMSdq      gap      omega  full diag
   1    -81.5513646 -0.815514E+02  0.426E+00    5.02       0.0  T
   2    -81.8397774 -0.288413E+00  0.229E+00    6.01       1.0  T
   3    -81.8454715 -0.569407E-02  0.113E+00    5.66       1.0  T
   4    -81.8467921 -0.132060E-02  0.238E-01    5.69       1.0  T
   5    -81.8476739 -0.881774E-03  0.911E-02    5.62       1.0  T
   6    -81.8476991 -0.251849E-04  0.276E-02    5.64       1.0  T
   7    -81.8477037 -0.467473E-05  0.764E-03    5.64       1.8  T
   8    -81.8477040 -0.292096E-06  0.278E-03    5.64       4.9  T
   9    -81.8477041 -0.227936E-07  0.103E-03    5.64      13.4  T
  10    -81.8477041 -0.674041E-08  0.210E-04    5.64      65.3  T
  11    -81.8477041 -0.643510E-09  0.896E-05    5.64     153.3  T

   *** convergence criteria satisfied after 11 iterations ***

         #    Occupation            Energy/Eh            Energy/eV
      -------------------------------------------------------------
         1        2.0000           -0.7924085             -21.5625
       ...           ...                  ...                  ...
        64        2.0000           -0.4985814             -13.5671
        65        2.0000           -0.4964748             -13.5098
        66        2.0000           -0.4933344             -13.4243
        67        2.0000           -0.4922505             -13.3948
        68        2.0000           -0.4897682             -13.3273
        69        2.0000           -0.4841231             -13.1737
        70        2.0000           -0.4792645             -13.0415 (HOMO)
        71                         -0.2721175              -7.4047 (LUMO)
        72                         -0.2662994              -7.2464
        73                         -0.2634843              -7.1698
        74                         -0.2570767              -6.9954
        75                         -0.1491309              -4.0581
       ...                                ...                  ...
       122                          0.5533844              15.0584
      -------------------------------------------------------------
                  HL-Gap            0.2071470 Eh            5.6368 eV
             Fermi-level           -0.3756910 Eh          -10.2231 eV

 SCC (total)                   0 d,  0 h,  0 min,  0.086 sec
 SCC setup                      ...        0 min,  0.000 sec (  0.332%)
 Dispersion                     ...        0 min,  0.001 sec (  0.682%)
 classical contributions        ...        0 min,  0.000 sec (  0.225%)
 integral evaluation            ...        0 min,  0.008 sec (  8.887%)
 iterations                     ...        0 min,  0.049 sec ( 57.582%)
 molecular gradient             ...        0 min,  0.027 sec ( 31.937%)
 printout                       ...        0 min,  0.000 sec (  0.342%)

         :::::::::::::::::::::::::::::::::::::::::::::::::::::
         ::                     SUMMARY                     ::
         :::::::::::::::::::::::::::::::::::::::::::::::::::::
         :: total energy             -80.935102182715 Eh    ::
         :: gradient norm              0.000061699379 Eh/a0 ::
         :: HOMO-LUMO gap              5.636757934664 eV    ::
         ::.................................................::
         :: SCC energy               -81.847704059585 Eh    ::
         :: -> isotropic ES            0.292225965744 Eh    ::
         :: -> anisotropic ES         -0.028901032032 Eh    ::
         :: -> anisotropic XC          0.020672133159 Eh    ::
         :: -> dispersion             -0.042749055636 Eh    ::
         :: repulsion energy           0.911658634196 Eh    ::
         :: add. restraining           0.000000000000 Eh    ::
         :: total charge               1.000000000000 e     ::
         :::::::::::::::::::::::::::::::::::::::::::::::::::::

           ------------------------------------------------- 
          |                Numerical Hessian                |
           ------------------------------------------------- 
step length          :   0.00500
SCC accuracy         :   0.30000
Hessian scale factor :   1.00000
frozen atoms in %    :   0.00000    0
RMS gradient         :   0.00006
estimated CPU  time      0.23 min
estimated wall time      0.23 min

writing file <hessian>.

 projected vibrational frequencies (cm⁻¹)
eigval :       -0.00    -0.00    -0.00    -0.00     0.00     0.00
eigval :       -7.60     6.12    13.46    19.22    24.83    34.62
eigval :       40.71    45.90    54.02    56.63    64.74    72.42
eigval :       77.01    81.60    84.75    90.92   102.22   108.29
eigval :      118.36   120.43   139.88   147.01   147.64   167.82
eigval :      180.81   193.77   263.12   269.16   278.15   309.72
eigval :      311.45   317.96   328.38   330.14   362.05   371.92
eigval :      378.10   391.84   429.61   434.25   443.78   453.89
eigval :      455.00   464.35   467.95   469.45   476.24   484.12
eigval :      491.52   504.63   505.38   506.46   529.69   546.55
eigval :      556.06   564.05   581.94   644.95   669.23   673.50
eigval :      674.19   685.58   743.42   767.09   782.62   807.48
eigval :      898.73   926.91   944.90   968.71   973.29   978.53
eigval :      995.08  1003.39  1012.27  1013.09  1020.28  1029.60
eigval :     1031.70  1039.33  1042.22  1081.02  1082.97  1088.76
eigval :     1097.80  1105.72  1108.84  1134.52  1174.00  1229.71
eigval :     1251.39  1283.97  1312.18  1338.11  1348.45  1351.88
eigval :     1353.17  1365.41  1377.36  1397.01  1405.47  1406.42
eigval :     1429.91  1437.08  1440.72  1443.06  1449.72  1450.13
eigval :     1456.11  1457.18  1468.79  1472.38  1473.88  1480.12
eigval :     1492.02  1497.94  1501.56  1507.54  1536.05  1642.88
eigval :     1691.02  1714.16  1726.52  2892.58  2962.17  2974.14
eigval :     2991.68  3028.47  3039.59  3041.70  3043.89  3046.81
eigval :     3052.04  3052.64  3056.41  3060.50  3068.91  3115.29
eigval :     3306.03  3385.66  3446.53  3488.18  3491.69  3493.56
eigval :     3501.36  3505.66  3535.15  3540.08  3555.93  3558.37
eigval :     3560.37  3566.01  3571.53
           -------------------------------------------------
          |                Property Printout                |
           -------------------------------------------------

    * Orbital Energies and Occupations

         #    Occupation            Energy/Eh            Energy/eV
      -------------------------------------------------------------
         1        2.0000           -0.7924083             -21.5625
       ...           ...                  ...                  ...
        58        2.0000           -0.5103894             -13.8884
        59        2.0000           -0.5042170             -13.7204
        60        2.0000           -0.5038878             -13.7115
        61        2.0000           -0.5011002             -13.6356
        62        2.0000           -0.5000693             -13.6076
        63        2.0000           -0.4993437             -13.5878
        64        2.0000           -0.4985813             -13.5671
        65        2.0000           -0.4964752             -13.5098
        66        2.0000           -0.4933350             -13.4243
        67        2.0000           -0.4922513             -13.3948
        68        2.0000           -0.4897688             -13.3273
        69        2.0000           -0.4841238             -13.1737
        70        2.0000           -0.4792654             -13.0415 (HOMO)
        71                         -0.2721175              -7.4047 (LUMO)
        72                         -0.2662998              -7.2464
        73                         -0.2634847              -7.1698
        74                         -0.2570770              -6.9954
        75                         -0.1491309              -4.0581
        76                         -0.1030075              -2.8030
        77                         -0.0973289              -2.6485
        78                         -0.0788309              -2.1451
        79                         -0.0752338              -2.0472
        80                         -0.0704014              -1.9157
        81                         -0.0681705              -1.8550
       ...                                ...                  ...
       122                          0.5533840              15.0583
      -------------------------------------------------------------
                  HL-Gap            0.2071479 Eh            5.6368 eV
             Fermi-level           -0.3756915 Eh          -10.2231 eV

     #   Z          covCN         q      C6AA      α(0)
     1   8 O        1.653    -0.480    22.477     6.400
     2   6 C        3.673     0.076    19.530     6.333
     3   1 H        0.924     0.052     2.293     2.368
     4   1 H        0.923     0.041     2.441     2.444
     5   6 C        3.762    -0.064    21.766     6.650
     6   1 H        0.924     0.123     1.592     1.973
     7   1 H        0.924     0.069     2.091     2.262
     8   7 N        3.623     0.159    18.558     6.398
     9   6 C        3.730    -0.118    22.861     6.825
    10   1 H        0.925     0.112     1.680     2.027
    11   1 H        0.925     0.108     1.713     2.047
    12   1 H        0.925     0.106     1.727     2.055
    13   6 C        3.736    -0.118    22.850     6.822
    14   1 H        0.925     0.125     1.574     1.962
    15   1 H        0.925     0.076     2.020     2.222
    16   1 H        0.925     0.118     1.626     1.994
    17   6 C        3.723    -0.107    22.659     6.798
    18   1 H        0.925     0.094     1.844     2.124
    19   1 H        0.925     0.125     1.573     1.961
    20   1 H        0.925     0.077     2.010     2.217
    21   1 H        0.802     0.334     0.628     1.245
    22   6 C        2.675     0.342    21.183     7.531
    23   8 O        0.860    -0.514    24.103     6.582
    24   7 N        2.644    -0.291    27.513     7.790
    25   1 H        0.860     0.202     1.094     1.638
    26   1 H        0.860     0.183     1.196     1.713
    27   7 N        2.644    -0.306    27.877     7.842
    28   1 H        0.861     0.178     1.227     1.735
    29   1 H        0.860     0.234     0.948     1.526
    30   6 C        2.675     0.339    21.236     7.541
    31   8 O        0.861    -0.544    24.786     6.675
    32   7 N        2.644    -0.287    27.405     7.775
    33   1 H        0.860     0.214     1.039     1.597
    34   1 H        0.861     0.188     1.168     1.693
    35   7 N        2.643    -0.295    27.609     7.804
    36   1 H        0.861     0.184     1.190     1.709
    37   1 H        0.859     0.255     0.864     1.456
    38   6 C        2.675     0.346    21.126     7.521
    39   8 O        0.860    -0.521    24.255     6.603
    40   7 N        2.646    -0.289    27.456     7.782
    41   1 H        0.860     0.200     1.108     1.649
    42   1 H        0.861     0.186     1.181     1.702
    43   7 N        2.646    -0.289    27.444     7.780
    44   1 H        0.861     0.186     1.179     1.701
    45   1 H        0.860     0.199     1.110     1.650
    46   6 C        2.675     0.342    21.183     7.531
    47   8 O        0.860    -0.534    24.547     6.643
    48   7 N        2.644    -0.296    27.634     7.807
    49   1 H        0.860     0.194     1.135     1.669
    50   1 H        0.860     0.185     1.184     1.705
    51   7 N        2.644    -0.320    28.237     7.892
    52   1 H        0.860     0.200     1.104     1.646
    53   1 H        0.860     0.218     1.019     1.581

 Mol. C6AA /au·bohr⁶  :      21801.002115
 Mol. C8AA /au·bohr⁸  :     454348.974984
 Mol. α(0) /au        :        220.596558


Wiberg/Mayer (AO) data.
largest (>0.10) Wiberg bond orders for each atom

 ---------------------------------------------------------------------------
     #   Z sym  total        # sym  WBO       # sym  WBO       # sym  WBO
 ---------------------------------------------------------------------------
     1   8 O    1.944 --     2 C    1.024    21 H    0.803
     2   6 C    3.967 --     1 O    1.024     5 C    0.990     3 H    0.967
                             4 H    0.963
     3   1 H    0.997 --     2 C    0.967
     4   1 H    0.998 --     2 C    0.963
     5   6 C    3.935 --     2 C    0.990     7 H    0.970     6 H    0.949
                             8 N    0.939
     6   1 H    0.985 --     5 C    0.949
     7   1 H    0.995 --     5 C    0.970
     8   7 N    3.823 --    17 C    0.962    13 C    0.954     9 C    0.951
                             5 C    0.939
     9   6 C    3.913 --    11 H    0.968    12 H    0.967    10 H    0.965
                             8 N    0.951
    10   1 H    0.987 --     9 C    0.965
    11   1 H    0.988 --     9 C    0.968
    12   1 H    0.989 --     9 C    0.967
    13   6 C    3.918 --    15 H    0.979    16 H    0.964    14 H    0.962
                             8 N    0.954
    14   1 H    0.984 --    13 C    0.962
    15   1 H    0.994 --    13 C    0.979
    16   1 H    0.986 --    13 C    0.964
    17   6 C    3.929 --    20 H    0.980    18 H    0.974     8 N    0.962
                            19 H    0.959
    18   1 H    0.991 --    17 C    0.974
    19   1 H    0.984 --    17 C    0.959
    20   1 H    0.994 --    17 C    0.980
    21   1 H    0.888 --     1 O    0.803
    22   6 C    3.960 --    23 O    1.507    27 N    1.240    24 N    1.204
    23   8 O    1.928 --    22 C    1.507    27 N    0.146    24 N    0.132
    24   7 N    3.314 --    22 C    1.204    26 H    0.947    25 H    0.942
                            23 O    0.132
    25   1 H    0.959 --    24 N    0.942
    26   1 H    0.966 --    24 N    0.947
    27   7 N    3.335 --    22 C    1.240    28 H    0.949    29 H    0.888
                            23 O    0.146
    28   1 H    0.968 --    27 N    0.949
    29   1 H    0.945 --    27 N    0.888
    30   6 C    3.960 --    31 O    1.425    35 N    1.294    32 N    1.231
    31   8 O    1.910 --    30 C    1.425    35 N    0.135    32 N    0.122
    32   7 N    3.340 --    30 C    1.231    34 H    0.946    33 H    0.934
                            31 O    0.122
    33   1 H    0.954 --    32 N    0.934
    34   1 H    0.964 --    32 N    0.946
    35   7 N    3.370 --    30 C    1.294    36 H    0.946    37 H    0.855
                            31 O    0.135
    36   1 H    0.966 --    35 N    0.946
    37   1 H    0.935 --    35 N    0.855
    38   6 C    3.959 --    39 O    1.537    43 N    1.208    40 N    1.207
    39   8 O    1.896 --    38 C    1.537    40 N    0.144    43 N    0.144
    40   7 N    3.323 --    38 C    1.207    42 H    0.947    41 H    0.943
                            39 O    0.144
    41   1 H    0.960 --    40 N    0.943
    42   1 H    0.965 --    40 N    0.947
    43   7 N    3.323 --    38 C    1.208    44 H    0.947    45 H    0.943
                            39 O    0.144
    44   1 H    0.965 --    43 N    0.947
    45   1 H    0.960 --    43 N    0.943
    46   6 C    3.959 --    47 O    1.528    51 N    1.220    48 N    1.201
    47   8 O    1.886 --    46 C    1.528    51 N    0.140    48 N    0.140
    48   7 N    3.314 --    46 C    1.201    50 H    0.947    49 H    0.945
                            47 O    0.140
    49   1 H    0.962 --    48 N    0.945
    50   1 H    0.965 --    48 N    0.947
    51   7 N    3.300 --    46 C    1.220    52 H    0.926    53 H    0.904
                            47 O    0.140
    52   1 H    0.960 --    51 N    0.926
    53   1 H    0.952 --    51 N    0.904
 ---------------------------------------------------------------------------

Topologies differ in total number of bonds
Writing topology from bond orders to xtbtopo.mol

molecular dipole:
                 x           y           z       tot (Debye)
 q only:       -1.249      -1.568      -0.095
   full:       -0.919      -1.375       0.021       4.204
molecular quadrupole (traceless):
                xx          xy          yy          xz          yz          zz
 q only:       22.883      43.667       7.185      -9.940     -12.700     -30.067
  q+dip:       28.437      51.567       5.903     -13.262     -15.862     -34.340
   full:       28.188      51.000       6.329     -13.821     -16.225     -34.517

           -------------------------------------------------
          |               Frequency Printout                |
           -------------------------------------------------
 projected vibrational frequencies (cm⁻¹)
eigval :       -0.00    -0.00    -0.00    -0.00     0.00     0.00
eigval :       -7.60     6.12    13.46    19.22    24.83    34.62
eigval :       40.71    45.90    54.02    56.63    64.74    72.42
eigval :       77.01    81.60    84.75    90.92   102.22   108.29
eigval :      118.36   120.43   139.88   147.01   147.64   167.82
eigval :      180.81   193.77   263.12   269.16   278.15   309.72
eigval :      311.45   317.96   328.38   330.14   362.05   371.92
eigval :      378.10   391.84   429.61   434.25   443.78   453.89
eigval :      455.00   464.35   467.95   469.45   476.24   484.12
eigval :      491.52   504.63   505.38   506.46   529.69   546.55
eigval :      556.06   564.05   581.94   644.95   669.23   673.50
eigval :      674.19   685.58   743.42   767.09   782.62   807.48
eigval :      898.73   926.91   944.90   968.71   973.29   978.53
eigval :      995.08  1003.39  1012.27  1013.09  1020.28  1029.60
eigval :     1031.70  1039.33  1042.22  1081.02  1082.97  1088.76
eigval :     1097.80  1105.72  1108.84  1134.52  1174.00  1229.71
eigval :     1251.39  1283.97  1312.18  1338.11  1348.45  1351.88
eigval :     1353.17  1365.41  1377.36  1397.01  1405.47  1406.42
eigval :     1429.91  1437.08  1440.72  1443.06  1449.72  1450.13
eigval :     1456.11  1457.18  1468.79  1472.38  1473.88  1480.12
eigval :     1492.02  1497.94  1501.56  1507.54  1536.05  1642.88
eigval :     1691.02  1714.16  1726.52  2892.58  2962.17  2974.14
eigval :     2991.68  3028.47  3039.59  3041.70  3043.89  3046.81
eigval :     3052.04  3052.64  3056.41  3060.50  3068.91  3115.29
eigval :     3306.03  3385.66  3446.53  3488.18  3491.69  3493.56
eigval :     3501.36  3505.66  3535.15  3540.08  3555.93  3558.37
eigval :     3560.37  3566.01  3571.53
 reduced masses (amu)
   1: 12.83   2: 12.67   3: 12.44   4: 12.68   5: 12.18   6: 12.56   7: 11.17   8: 12.10
   9: 12.55  10: 12.14  11: 12.20  12: 12.24  13: 11.96  14: 12.32  15: 12.68  16: 12.04
  17: 12.27  18: 12.78  19: 13.52  20: 12.63  21: 13.41  22: 11.89  23: 12.42  24: 12.40
  25: 12.14  26: 11.57  27: 13.11  28: 12.70  29:  3.88  30: 12.55  31: 12.74  32: 10.61
  33: 12.48  34:  3.41  35:  4.33  36:  5.07  37:  7.01  38:  3.49  39:  3.88  40:  3.37
  41:  5.15  42:  5.42  43:  2.44  44:  3.77  45:  8.52  46:  3.14  47:  1.53  48:  4.22
  49:  8.17  50:  7.80  51:  6.75  52:  8.01  53:  8.08  54:  3.09  55:  6.47  56:  3.24
  57:  4.00  58:  2.45  59:  9.76  60: 11.29  61: 11.41  62:  8.47  63: 12.29  64:  5.23
  65: 10.30  66: 11.67  67: 11.95  68:  7.64  69:  4.81  70:  9.19  71:  1.90  72:  2.21
  73:  6.95  74:  8.45  75:  5.27  76:  4.78  77:  4.76  78:  5.21  79:  8.72  80:  7.64
  81:  8.76  82:  8.48  83:  9.69  84:  8.07  85:  8.82  86:  3.21  87:  5.10  88:  9.80
  89:  9.10  90:  8.54  91:  6.84  92:  6.78  93:  4.79  94:  8.48  95:  3.11  96:  5.16
  97:  6.24  98:  7.96  99:  6.57 100:  3.22 101:  4.70 102:  5.01 103:  5.68 104:  6.22
 105:  4.29 106:  2.60 107:  2.55 108:  2.83 109:  2.37 110:  1.83 111:  2.01 112:  3.23
 113:  1.99 114:  2.86 115:  3.16 116:  1.75 117:  2.22 118:  2.83 119:  2.08 120:  1.93
 121:  1.79 122:  8.28 123:  6.68 124:  8.40 125: 10.43 126: 12.18 127: 12.74 128: 12.71
 129: 12.82 130:  1.77 131:  1.69 132:  1.73 133:  1.75 134:  1.71 135:  1.61 136:  1.76
 137:  1.31 138:  1.95 139:  1.84 140:  1.75 141:  1.94 142:  1.75 143:  1.92 144:  1.84
 145:  1.74 146:  1.62 147:  2.02 148:  1.47 149:  1.45 150:  1.45 151:  1.44 152:  1.46
 153:  1.89 154:  1.94 155:  2.17 156:  2.17 157:  2.18 158:  2.19 159:  2.18
 IR intensities (km·mol⁻¹)
   1:  1.59   2:  1.25   3:  1.70   4:  2.13   5:  1.33   6:  0.85   7:  0.06   8:  1.11
   9:  1.11  10:  0.73  11:  1.17  12:  1.45  13:  5.25  14:  2.81  15: 10.50  16:  1.11
  17:  8.44  18:  3.11  19:  6.56  20:  3.54  21:  6.13  22:  4.28  23: 11.36  24:  3.08
  25: 25.09  26:  5.64  27:  1.82  28:  8.69  29:  6.27  30: 31.60  31: 24.98  32:  8.46
  33: 31.07  34: 64.22  35: 41.79  36: 59.36  37: 45.68  38:526.70  39: 98.29  40:171.82
  41: 12.29  42:  0.41  43:  0.54  44:184.89  45:  0.23  46:273.97  47:  4.06  48: 11.64
  49:  5.26  50:  4.23  51: 48.48  52:  0.70  53: 13.09  54: 26.82  55: 51.36  56: 10.38
  57: 51.88  58:  8.47  59: 31.13  60: 28.71  61: 19.88  62: 14.85  63: 47.99  64: 66.78
  65:  8.38  66: 34.74  67: 40.54  68: 85.18  69:272.85  70:  7.94  71: 27.49  72:643.63
  73:  3.78  74:  8.48  75:  1.76  76:  7.25  77:  4.57  78:  4.20  79:  0.16  80: 24.29
  81:  7.41  82: 20.41  83:  4.55  84: 18.60  85:  3.60  86:  4.64  87: 19.29  88:  1.57
  89:  3.03  90:  0.96  91: 17.67  92:  0.83  93: 11.55  94: 47.78  95: 13.42  96:  1.97
  97:  3.28  98: 21.46  99:  3.87 100:  7.26 101:  4.94 102:113.16 103: 76.00 104:163.72
 105: 13.41 106:  5.34 107:  8.71 108:148.67 109:  6.69 110:  0.85 111:  0.08 112:  0.39
 113:  2.38 114:  3.45 115:  4.08 116:  8.01 117:  3.67 118: 40.68 119: 17.20 120: 46.97
 121: 20.35 122:468.98 123:197.14 124:874.31 125:394.66 126:605.82 127:588.89 128:******
 129:815.89 130: 34.81 131: 79.92 132: 21.23 133: 20.98 134: 34.06 135:  8.02 136:  4.95
 137: 21.98 138: 10.20 139: 12.66 140:  5.97 141:135.98 142: 63.42 143:****** 144:740.51
 145:591.29 146:396.41 147: 83.20 148: 36.14 149: 15.43 150: 24.15 151: 39.28 152:  8.11
 153: 15.19 154: 16.64 155: 14.04 156: 29.13 157:  9.57 158: 13.74 159: 11.77
 Raman intensities (amu)
Molecule has no symmetry elements
It seems to be the C1 point group
   1:  0.00   2:  0.00   3:  0.00   4:  0.00   5:  0.00   6:  0.00   7:  0.00   8:  0.00
   9:  0.00  10:  0.00  11:  0.00  12:  0.00  13:  0.00  14:  0.00  15:  0.00  16:  0.00
  17:  0.00  18:  0.00  19:  0.00  20:  0.00  21:  0.00  22:  0.00  23:  0.00  24:  0.00
  25:  0.00  26:  0.00  27:  0.00  28:  0.00  29:  0.00  30:  0.00  31:  0.00  32:  0.00
  33:  0.00  34:  0.00  35:  0.00  36:  0.00  37:  0.00  38:  0.00  39:  0.00  40:  0.00
  41:  0.00  42:  0.00  43:  0.00  44:  0.00  45:  0.00  46:  0.00  47:  0.00  48:  0.00
  49:  0.00  50:  0.00  51:  0.00  52:  0.00  53:  0.00  54:  0.00  55:  0.00  56:  0.00
  57:  0.00  58:  0.00  59:  0.00  60:  0.00  61:  0.00  62:  0.00  63:  0.00  64:  0.00
  65:  0.00  66:  0.00  67:  0.00  68:  0.00  69:  0.00  70:  0.00  71:  0.00  72:  0.00
  73:  0.00  74:  0.00  75:  0.00  76:  0.00  77:  0.00  78:  0.00  79:  0.00  80:  0.00
  81:  0.00  82:  0.00  83:  0.00  84:  0.00  85:  0.00  86:  0.00  87:  0.00  88:  0.00
  89:  0.00  90:  0.00  91:  0.00  92:  0.00  93:  0.00  94:  0.00  95:  0.00  96:  0.00
  97:  0.00  98:  0.00  99:  0.00 100:  0.00 101:  0.00 102:  0.00 103:  0.00 104:  0.00
 105:  0.00 106:  0.00 107:  0.00 108:  0.00 109:  0.00 110:  0.00 111:  0.00 112:  0.00
 113:  0.00 114:  0.00 115:  0.00 116:  0.00 117:  0.00 118:  0.00 119:  0.00 120:  0.00
 121:  0.00 122:  0.00 123:  0.00 124:  0.00 125:  0.00 126:  0.00 127:  0.00 128:  0.00
 129:  0.00 130:  0.00 131:  0.00 132:  0.00 133:  0.00 134:  0.00 135:  0.00 136:  0.00
 137:  0.00 138:  0.00 139:  0.00 140:  0.00 141:  0.00 142:  0.00 143:  0.00 144:  0.00
 145:  0.00 146:  0.00 147:  0.00 148:  0.00 149:  0.00 150:  0.00 151:  0.00 152:  0.00
 153:  0.00 154:  0.00 155:  0.00 156:  0.00 157:  0.00 158:  0.00 159:  0.00
 output can be read by thermo (or use thermo option).
 writing <g98.out> molden fake output.
 recommended (thermochemical) frequency scaling factor: 1.0
           -------------------------------------------------
          |             Thermodynamic Functions             |
           -------------------------------------------------

c1  symmetry found (for desy threshold:  0.10E+00) used in thermo
 inverting freq            1   7.5958752555622979     

          ...................................................
          :                      SETUP                      :
          :.................................................:
          :  # frequencies                         153      :
          :  # imaginary freq.                       0      :
          :  linear?                             false      :
          :  only rotor calc.                    false      :
          :  symmetry                               c1      :
          :  rotational number                       1      :
          :  scaling factor                  1.0000000      :
          :  rotor cutoff                   50.0000000 cm⁻¹ :
          :  imag. cutoff                  -20.0000000 cm⁻¹ :
          :.................................................:

    mode    ω/cm⁻¹     T·S(HO)/kcal·mol⁻¹    T·S(FR)/kcal·mol⁻¹   T·S(vib)
   ------------------------------------------------------------------------
       1      7.60    -2.55139 (  0.05%)    -1.61463 ( 99.95%)    -1.61513
       2      6.12    -2.67932 (  0.02%)    -1.67856 ( 99.98%)    -1.67879
       3     13.46    -2.21243 (  0.52%)    -1.44519 ( 99.48%)    -1.44920
       4     19.22    -2.00169 (  2.13%)    -1.33979 ( 97.87%)    -1.35392
       5     24.83    -1.84998 (  5.73%)    -1.26388 ( 94.27%)    -1.29748
       6     34.62    -1.65333 ( 18.69%)    -1.16540 ( 81.31%)    -1.25660
       7     40.71    -1.55761 ( 30.53%)    -1.11741 ( 69.47%)    -1.25180
       8     45.90    -1.48674 ( 41.53%)    -1.08185 ( 58.47%)    -1.25001
       9     54.02    -1.39073 ( 57.67%)    -1.03362 ( 42.33%)    -1.23957
      10     56.63    -1.36295 ( 62.20%)    -1.01965 ( 37.80%)    -1.23317
      11     64.74    -1.28417 ( 73.76%)    -0.97998 ( 26.24%)    -1.20436
      12     72.42    -1.21834 ( 81.49%)    -0.94677 ( 18.51%)    -1.16807
      13     77.01    -1.18240 ( 84.91%)    -0.92860 ( 15.09%)    -1.14409
      14     81.60    -1.14849 ( 87.64%)    -0.91144 ( 12.36%)    -1.11920
      15     84.75    -1.12633 ( 89.19%)    -0.90021 ( 10.81%)    -1.10190
      16     90.92    -1.08532 ( 91.62%)    -0.87940 (  8.38%)    -1.06807
      17    102.22    -1.01713 ( 94.59%)    -0.84468 (  5.41%)    -1.00779
      18    108.29    -0.98371 ( 95.65%)    -0.82761 (  4.35%)    -0.97692
      19    118.36    -0.93231 ( 96.91%)    -0.80127 (  3.09%)    -0.92827
      20    120.43    -0.92230 ( 97.11%)    -0.79612 (  2.89%)    -0.91865
      21    139.88    -0.83647 ( 98.39%)    -0.75179 (  1.61%)    -0.83511
      22    147.01    -0.80814 ( 98.68%)    -0.73705 (  1.32%)    -0.80721
      23    147.64    -0.80573 ( 98.70%)    -0.73578 (  1.30%)    -0.80482
      24    167.82    -0.73339 ( 99.22%)    -0.69784 (  0.78%)    -0.73311
      25    180.81    -0.69170 ( 99.42%)    -0.67574 (  0.58%)    -0.69161
      26    193.77    -0.65337 ( 99.56%)    -0.65523 (  0.44%)    -0.65338
      27    263.12    -0.48926 ( 99.87%)    -0.56461 (  0.13%)    -0.48936
      28    269.16    -0.47752 ( 99.88%)    -0.55789 (  0.12%)    -0.47761
      29    278.15    -0.46065 ( 99.90%)    -0.54815 (  0.10%)    -0.46074
   ------------------------------------------------------------------------

   temp. (K)  partition function   enthalpy   heat capacity  entropy
                                   cal/mol     cal/K/mol   cal/K/mol   J/K/mol
 298.15  VIB  0.136E+19            19501.484    103.872    130.318
         ROT  0.159E+08              888.752      2.981     35.934
         INT  0.216E+26            20390.236    106.853    166.253
         TR   0.618E+28             1481.254      4.968     43.384
         TOT                       21871.4903   111.8211   209.6372   877.1221

       T/K    H(0)-H(T)+PV         H(T)/Eh          T*S/Eh         G(T)/Eh
   ------------------------------------------------------------------------
    298.15    0.348544E-01    0.474084E+00    0.996054E-01    0.374479E+00
   ------------------------------------------------------------------------

         :::::::::::::::::::::::::::::::::::::::::::::::::::::
         ::                  THERMODYNAMIC                  ::
         :::::::::::::::::::::::::::::::::::::::::::::::::::::
         :: total free energy         -80.560623225361 Eh   ::
         ::.................................................::
         :: total energy              -80.935102182751 Eh   ::
         :: zero point energy           0.439229927419 Eh   ::
         :: G(RRHO) w/o ZPVE           -0.064750970029 Eh   ::
         :: G(RRHO) contrib.            0.374478957390 Eh   ::
         :::::::::::::::::::::::::::::::::::::::::::::::::::::
imag cut-off (cm-1) :    5.00
 found            1  significant imaginary frequency
 writing imag mode distorted coords to xtbhess.xyz
 for further optimization.

           -------------------------------------------------
          | TOTAL ENERGY              -80.935102182751 Eh   |
          | TOTAL ENTHALPY            -80.461017816978 Eh   |
          | TOTAL FREE ENERGY         -80.560623225361 Eh   |
          | GRADIENT NORM               0.000061786421 Eh/α |
          | HOMO-LUMO GAP               5.636781423951 eV   |
           -------------------------------------------------

------------------------------------------------------------------------
 * finished run on 2024/01/10 at 15:36:11.122     
------------------------------------------------------------------------
 total:
 * wall-time:     0 d,  0 h,  0 min, 14.239 sec
 *  cpu-time:     0 d,  0 h,  0 min, 14.188 sec
 * ratio c/w:     0.996 speedup
 SCF:
 * wall-time:     0 d,  0 h,  0 min,  0.086 sec
 *  cpu-time:     0 d,  0 h,  0 min,  0.058 sec
 * ratio c/w:     0.678 speedup
 analytical hessian:
 * wall-time:     0 d,  0 h,  0 min, 14.126 sec
 *  cpu-time:     0 d,  0 h,  0 min, 14.104 sec
 * ratio c/w:     0.998 speedup

