      -----------------------------------------------------------      
     |                   =====================                   |     
     |                           x T B                           |     
     |                   =====================                   |     
     |                         S. Grimme                         |     
     |          Mulliken Center for Theoretical Chemistry        |     
     |                    University of Bonn                     |     
      -----------------------------------------------------------      

   * xtb version 6.6.1 (unknown-commit) compiled by '@Linux' on 12/27/2023

   xtb is free software: you can redistribute it and/or modify it under
   the terms of the GNU Lesser General Public License as published by
   the Free Software Foundation, either version 3 of the License, or
   (at your option) any later version.
   
   xtb is distributed in the hope that it will be useful,
   but WITHOUT ANY WARRANTY; without even the implied warranty of
   MERCHANTABILITY or FITNESS FOR A PARTICULAR PURPOSE.  See the
   GNU Lesser General Public License for more details.
   
   Cite this work as:
   * C. Bannwarth, E. Caldeweyher, S. Ehlert, A. Hansen, P. Pracht,
     J. Seibert, S. Spicher, S. Grimme, WIREs Comput. Mol. Sci., 2020, 11,
     e01493. DOI: 10.1002/wcms.1493
   
   for GFN2-xTB:
   * C. Bannwarth, S. Ehlert and S. Grimme., J. Chem. Theory Comput., 2019,
     15, 1652-1671. DOI: 10.1021/acs.jctc.8b01176
   for GFN1-xTB:
   * S. Grimme, C. Bannwarth, P. Shushkov, J. Chem. Theory Comput., 2017,
     13, 1989-2009. DOI: 10.1021/acs.jctc.7b00118
   for GFN0-xTB:
   * P. Pracht, E. Caldeweyher, S. Ehlert, S. Grimme, ChemRxiv, 2019, preprint.
     DOI: 10.26434/chemrxiv.8326202.v1
   for GFN-FF:
   * S. Spicher and S. Grimme, Angew. Chem. Int. Ed., 2020, 59, 15665-15673.
     DOI: 10.1002/anie.202004239
   
   for ALPB and GBSA implicit solvation:
   * S. Ehlert, M. Stahn, S. Spicher, S. Grimme, J. Chem. Theory Comput.,
     2021, 17, 4250-4261. DOI: 10.1021/acs.jctc.1c00471
   
   for DFT-D4:
   * E. Caldeweyher, C. Bannwarth and S. Grimme, J. Chem. Phys., 2017,
     147, 034112. DOI: 10.1063/1.4993215
   * E. Caldeweyher, S. Ehlert, A. Hansen, H. Neugebauer, S. Spicher,
     C. Bannwarth and S. Grimme, J. Chem. Phys., 2019, 150, 154122.
     DOI: 10.1063/1.5090222
   * E. Caldeweyher, J.-M. Mewes, S. Ehlert and S. Grimme, Phys. Chem. Chem. Phys.
     2020, 22, 8499-8512. DOI: 10.1039/D0CP00502A
   
   for sTDA-xTB:
   * S. Grimme and C. Bannwarth, J. Chem. Phys., 2016, 145, 054103.
     DOI: 10.1063/1.4959605
   
   in the mass-spec context:
   * V. Asgeirsson, C. Bauer and S. Grimme, Chem. Sci., 2017, 8, 4879.
     DOI: 10.1039/c7sc00601b
   * J. Koopman and S. Grimme, ACS Omega 2019, 4, 12, 15120-15133.
     DOI: 10.1021/acsomega.9b02011
   
   for metadynamics refer to:
   * S. Grimme, J. Chem. Theory Comput., 2019, 155, 2847-2862
     DOI: 10.1021/acs.jctc.9b00143
   
   for SPH calculations refer to:
   * S. Spicher and S. Grimme, J. Chem. Theory Comput., 2021, 17, 1701-1714
     DOI: 10.1021/acs.jctc.0c01306
   
   with help from (in alphabetical order)
   P. Atkinson, C. Bannwarth, F. Bohle, G. Brandenburg, E. Caldeweyher
   M. Checinski, S. Dohm, S. Ehlert, S. Ehrlich, I. Gerasimov, C. Hölzer
   A. Katbashev, J. Koopman, C. Lavigne, S. Lehtola, F. März, M. Müller,
   F. Musil, H. Neugebauer, J. Pisarek, C. Plett, P. Pracht, F. Pultar,
   J. Seibert, P. Shushkov, S. Spicher, M. Stahn, M. Steiner, T. Strunk,
   J. Stückrath, T. Rose, and J. Unsleber
   
 * started run on 2024/01/10 at 18:23:59.406     

           -------------------------------------------------
          |                Calculation Setup                |
           -------------------------------------------------

          program call               : xtb struc.xyz --gfn2 --hess
          hostname                   : swaroop
          coordinate file            : struc.xyz
          omp threads                :                     1

   ID    Z sym.   atoms
    1    8 O      1, 23, 31, 39, 47
    2    6 C      2, 5, 9, 13, 17, 22, 30, 38, 46
    3    1 H      3, 4, 6, 7, 10-12, 14-16, 18-21, 25, 26, 28, 29, 33, 34,
                  36, 37, 41, 42, 44, 45, 49, 50, 52, 53
    4    7 N      8, 24, 27, 32, 35, 40, 43, 48, 51

molecular fragmentation (1/2 indicates fragments):
11111111111111111111122222222222222222222222222222222
# atoms in fragment 1/2:    21    32
 fragment masses (1/2) :      104.17      240.22
CMA distance (Bohr)    :   6.033
constraining FC (au)   :  0.0500

           -------------------------------------------------
          |                 G F N 2 - x T B                 |
           -------------------------------------------------

        Reference                      10.1021/acs.jctc.8b01176
      * Hamiltonian:
        H0-scaling (s, p, d)           1.850000    2.230000    2.230000
        zeta-weighting                 0.500000
      * Dispersion:
        s8                             2.700000
        a1                             0.520000
        a2                             5.000000
        s9                             5.000000
      * Repulsion:
        kExp                           1.500000    1.000000
        rExp                           1.000000
      * Coulomb:
        alpha                          2.000000
        third order                    shell-resolved
        anisotropic                    true
        a3                             3.000000
        a5                             4.000000
        cn-shift                       1.200000
        cn-exp                         4.000000
        max-rad                        5.000000


          ...................................................
          :                      SETUP                      :
          :.................................................:
          :  # basis functions                 122          :
          :  # atomic orbitals                 122          :
          :  # shells                           76          :
          :  # electrons                       140          :
          :  max. iterations                   250          :
          :  Hamiltonian                  GFN2-xTB          :
          :  restarted?                      false          :
          :  GBSA solvation                  false          :
          :  PC potential                    false          :
          :  electronic temp.          300.0000000     K    :
          :  accuracy                    1.0000000          :
          :  -> integral cutoff          0.2500000E+02      :
          :  -> integral neglect         0.1000000E-07      :
          :  -> SCF convergence          0.1000000E-05 Eh   :
          :  -> wf. convergence          0.1000000E-03 e    :
          :  Broyden damping             0.4000000          :
          ...................................................

 iter      E             dE          RMSdq      gap      omega  full diag
   1    -81.5612689 -0.815613E+02  0.428E+00    5.09       0.0  T
   2    -81.8410232 -0.279754E+00  0.233E+00    5.86       1.0  T
   3    -81.8466999 -0.567675E-02  0.114E+00    5.61       1.0  T
   4    -81.8480717 -0.137171E-02  0.243E-01    5.65       1.0  T
   5    -81.8489935 -0.921870E-03  0.914E-02    5.58       1.0  T
   6    -81.8490177 -0.241611E-04  0.263E-02    5.60       1.0  T
   7    -81.8490217 -0.403904E-05  0.754E-03    5.60       1.8  T
   8    -81.8490220 -0.285040E-06  0.268E-03    5.60       5.1  T
   9    -81.8490220 -0.163946E-07  0.927E-04    5.60      14.8  T
  10    -81.8490220 -0.502241E-08  0.175E-04    5.60      78.6  T

   *** convergence criteria satisfied after 10 iterations ***

         #    Occupation            Energy/Eh            Energy/eV
      -------------------------------------------------------------
         1        2.0000           -0.8022553             -21.8305
       ...           ...                  ...                  ...
        64        2.0000           -0.5026485             -13.6778
        65        2.0000           -0.4971046             -13.5269
        66        2.0000           -0.4965934             -13.5130
        67        2.0000           -0.4943963             -13.4532
        68        2.0000           -0.4929907             -13.4150
        69        2.0000           -0.4887247             -13.2989
        70        2.0000           -0.4863097             -13.2332 (HOMO)
        71                         -0.2806113              -7.6358 (LUMO)
        72                         -0.2706368              -7.3644
        73                         -0.2688024              -7.3145
        74                         -0.2589799              -7.0472
        75                         -0.1574616              -4.2847
       ...                                ...                  ...
       122                          0.5593767              15.2214
      -------------------------------------------------------------
                  HL-Gap            0.2056984 Eh            5.5973 eV
             Fermi-level           -0.3834605 Eh          -10.4345 eV

 SCC (total)                   0 d,  0 h,  0 min,  0.066 sec
 SCC setup                      ...        0 min,  0.000 sec (  0.446%)
 Dispersion                     ...        0 min,  0.001 sec (  0.880%)
 classical contributions        ...        0 min,  0.000 sec (  0.295%)
 integral evaluation            ...        0 min,  0.008 sec ( 12.800%)
 iterations                     ...        0 min,  0.027 sec ( 41.253%)
 molecular gradient             ...        0 min,  0.029 sec ( 43.896%)
 printout                       ...        0 min,  0.000 sec (  0.413%)

         :::::::::::::::::::::::::::::::::::::::::::::::::::::
         ::                     SUMMARY                     ::
         :::::::::::::::::::::::::::::::::::::::::::::::::::::
         :: total energy             -80.936870723460 Eh    ::
         :: gradient norm              0.000097144130 Eh/a0 ::
         :: HOMO-LUMO gap              5.597338586734 eV    ::
         ::.................................................::
         :: SCC energy               -81.849022031983 Eh    ::
         :: -> isotropic ES            0.294940307899 Eh    ::
         :: -> anisotropic ES         -0.029674035426 Eh    ::
         :: -> anisotropic XC          0.020922849560 Eh    ::
         :: -> dispersion             -0.046854097167 Eh    ::
         :: repulsion energy           0.910015160929 Eh    ::
         :: add. restraining           0.000000000000 Eh    ::
         :: total charge               1.000000000000 e     ::
         :::::::::::::::::::::::::::::::::::::::::::::::::::::

           ------------------------------------------------- 
          |                Numerical Hessian                |
           ------------------------------------------------- 
step length          :   0.00500
SCC accuracy         :   0.30000
Hessian scale factor :   1.00000
frozen atoms in %    :   0.00000    0
RMS gradient         :   0.00010
estimated CPU  time      0.25 min
estimated wall time      0.25 min

writing file <hessian>.

 projected vibrational frequencies (cm⁻¹)
eigval :       -0.00    -0.00    -0.00     0.00     0.00     0.00
eigval :      -11.47    18.30    29.17    31.76    37.65    40.48
eigval :       47.45    49.16    54.69    57.57    64.59    76.59
eigval :       79.47    86.52    97.26   105.10   113.69   116.18
eigval :      126.23   130.23   139.41   150.86   175.19   184.65
eigval :      188.78   207.52   245.05   256.62   263.46   292.36
eigval :      298.04   303.47   323.81   349.67   375.16   415.71
eigval :      428.27   430.78   437.02   451.07   458.52   463.71
eigval :      464.91   471.12   473.58   478.41   482.45   486.79
eigval :      490.14   501.48   510.39   520.00   540.55   543.99
eigval :      559.41   561.48   578.04   664.37   671.32   676.13
eigval :      679.02   713.79   734.26   749.57   762.39   787.60
eigval :      914.13   921.49   960.92   966.00   967.60   990.38
eigval :      992.90  1010.49  1010.89  1013.88  1018.52  1020.87
eigval :     1028.02  1033.63  1038.62  1087.78  1088.52  1091.92
eigval :     1092.13  1097.43  1099.14  1123.89  1155.70  1220.64
eigval :     1246.12  1272.28  1316.80  1320.81  1337.91  1351.35
eigval :     1358.19  1361.21  1368.20  1394.87  1401.49  1409.22
eigval :     1419.96  1435.44  1442.28  1450.87  1452.68  1456.57
eigval :     1458.45  1461.39  1464.36  1469.64  1474.32  1480.14
eigval :     1482.45  1501.70  1503.77  1511.02  1518.94  1651.93
eigval :     1692.88  1702.33  1717.24  2925.28  2986.01  2993.16
eigval :     2999.00  3022.26  3035.06  3041.70  3042.13  3046.73
eigval :     3047.47  3057.45  3058.37  3063.99  3126.81  3224.08
eigval :     3258.67  3334.64  3456.94  3467.64  3483.93  3497.99
eigval :     3499.84  3501.37  3508.21  3526.44  3535.45  3545.52
eigval :     3562.73  3565.95  3566.54
           -------------------------------------------------
          |                Property Printout                |
           -------------------------------------------------

    * Orbital Energies and Occupations

         #    Occupation            Energy/Eh            Energy/eV
      -------------------------------------------------------------
         1        2.0000           -0.8022547             -21.8305
       ...           ...                  ...                  ...
        58        2.0000           -0.5142290             -13.9929
        59        2.0000           -0.5118288             -13.9276
        60        2.0000           -0.5107830             -13.8991
        61        2.0000           -0.5069374             -13.7945
        62        2.0000           -0.5064910             -13.7823
        63        2.0000           -0.5043363             -13.7237
        64        2.0000           -0.5026490             -13.6778
        65        2.0000           -0.4971050             -13.5269
        66        2.0000           -0.4965958             -13.5131
        67        2.0000           -0.4943963             -13.4532
        68        2.0000           -0.4929911             -13.4150
        69        2.0000           -0.4887268             -13.2989
        70        2.0000           -0.4863121             -13.2332 (HOMO)
        71                         -0.2806131              -7.6359 (LUMO)
        72                         -0.2706371              -7.3644
        73                         -0.2688019              -7.3145
        74                         -0.2589836              -7.0473
        75                         -0.1574608              -4.2847
        76                         -0.1100517              -2.9947
        77                         -0.0914128              -2.4875
        78                         -0.0901832              -2.4540
        79                         -0.0811322              -2.2077
        80                         -0.0776287              -2.1124
        81                         -0.0732309              -1.9927
       ...                                ...                  ...
       122                          0.5593759              15.2214
      -------------------------------------------------------------
                  HL-Gap            0.2056990 Eh            5.5974 eV
             Fermi-level           -0.3834626 Eh          -10.4345 eV

     #   Z          covCN         q      C6AA      α(0)
     1   8 O        1.655    -0.448    21.796     6.302
     2   6 C        3.673     0.069    19.647     6.352
     3   1 H        0.924     0.061     2.188     2.313
     4   1 H        0.924     0.054     2.269     2.356
     5   6 C        3.769    -0.077    22.012     6.686
     6   1 H        0.924     0.119     1.624     1.993
     7   1 H        0.924     0.115     1.652     2.010
     8   7 N        3.623     0.158    18.583     6.403
     9   6 C        3.721    -0.106    22.636     6.795
    10   1 H        0.925     0.109     1.701     2.040
    11   1 H        0.925     0.078     1.997     2.210
    12   1 H        0.925     0.111     1.692     2.034
    13   6 C        3.738    -0.116    22.803     6.814
    14   1 H        0.925     0.104     1.745     2.066
    15   1 H        0.925     0.126     1.567     1.957
    16   1 H        0.925     0.084     1.937     2.176
    17   6 C        3.722    -0.110    22.721     6.807
    18   1 H        0.925     0.088     1.896     2.154
    19   1 H        0.925     0.084     1.943     2.180
    20   1 H        0.924     0.130     1.532     1.935
    21   1 H        0.805     0.310     0.692     1.306
    22   6 C        2.675     0.343    21.180     7.531
    23   8 O        0.860    -0.530    24.450     6.630
    24   7 N        2.643    -0.323    28.302     7.901
    25   1 H        0.860     0.242     0.917     1.500
    26   1 H        0.860     0.178     1.224     1.733
    27   7 N        2.645    -0.287    27.409     7.775
    28   1 H        0.861     0.187     1.173     1.697
    29   1 H        0.860     0.201     1.099     1.642
    30   6 C        2.675     0.342    21.188     7.532
    31   8 O        0.861    -0.542    24.736     6.668
    32   7 N        2.645    -0.291    27.503     7.789
    33   1 H        0.860     0.198     1.115     1.654
    34   1 H        0.861     0.185     1.184     1.704
    35   7 N        2.644    -0.303    27.794     7.830
    36   1 H        0.861     0.181     1.210     1.723
    37   1 H        0.859     0.251     0.881     1.471
    38   6 C        2.675     0.342    21.198     7.534
    39   8 O        0.860    -0.515    24.129     6.586
    40   7 N        2.643    -0.313    28.047     7.865
    41   1 H        0.860     0.239     0.928     1.509
    42   1 H        0.860     0.201     1.100     1.643
    43   7 N        2.644    -0.299    27.696     7.816
    44   1 H        0.860     0.184     1.190     1.709
    45   1 H        0.860     0.198     1.114     1.653
    46   6 C        2.675     0.343    21.167     7.529
    47   8 O        0.860    -0.541    24.715     6.665
    48   7 N        2.645    -0.297    27.650     7.810
    49   1 H        0.860     0.193     1.145     1.676
    50   1 H        0.861     0.181     1.208     1.722
    51   7 N        2.644    -0.310    27.991     7.858
    52   1 H        0.860     0.176     1.235     1.741
    53   1 H        0.860     0.240     0.924     1.506

 Mol. C6AA /au·bohr⁶  :      21781.571733
 Mol. C8AA /au·bohr⁸  :     454230.008216
 Mol. α(0) /au        :        220.489381


Wiberg/Mayer (AO) data.
largest (>0.10) Wiberg bond orders for each atom

 ---------------------------------------------------------------------------
     #   Z sym  total        # sym  WBO       # sym  WBO       # sym  WBO
 ---------------------------------------------------------------------------
     1   8 O    1.966 --     2 C    1.012    21 H    0.874
     2   6 C    3.960 --     1 O    1.012     5 C    0.998     3 H    0.964
                             4 H    0.961
     3   1 H    0.996 --     2 C    0.964
     4   1 H    0.997 --     2 C    0.961
     5   6 C    3.922 --     2 C    0.998     7 H    0.953     6 H    0.946
                             8 N    0.929
     6   1 H    0.986 --     5 C    0.946
     7   1 H    0.987 --     5 C    0.953
     8   7 N    3.822 --    17 C    0.960     9 C    0.959    13 C    0.956
                             5 C    0.929
     9   6 C    3.927 --    11 H    0.979    12 H    0.968    10 H    0.965
                             8 N    0.959
    10   1 H    0.988 --     9 C    0.965
    11   1 H    0.994 --     9 C    0.979
    12   1 H    0.988 --     9 C    0.968
    13   6 C    3.922 --    16 H    0.978    14 H    0.972    15 H    0.961
                             8 N    0.956
    14   1 H    0.989 --    13 C    0.972
    15   1 H    0.984 --    13 C    0.961
    16   1 H    0.993 --    13 C    0.978
    17   6 C    3.926 --    19 H    0.977    18 H    0.974     8 N    0.960
                            20 H    0.956
    18   1 H    0.992 --    17 C    0.974
    19   1 H    0.993 --    17 C    0.977
    20   1 H    0.983 --    17 C    0.956
    21   1 H    0.904 --     1 O    0.874
    22   6 C    3.959 --    23 O    1.522    27 N    1.220    24 N    1.205
    23   8 O    1.888 --    22 C    1.522    27 N    0.144    24 N    0.136
    24   7 N    3.301 --    22 C    1.205    26 H    0.949    25 H    0.886
                            23 O    0.136
    25   1 H    0.942 --    24 N    0.886
    26   1 H    0.968 --    24 N    0.949
    27   7 N    3.338 --    22 C    1.220    28 H    0.946    29 H    0.942
                            23 O    0.144
    28   1 H    0.965 --    27 N    0.946
    29   1 H    0.959 --    27 N    0.942
    30   6 C    3.960 --    31 O    1.463    35 N    1.278    32 N    1.207
    31   8 O    1.901 --    30 C    1.463    35 N    0.144    32 N    0.127
    32   7 N    3.320 --    30 C    1.207    34 H    0.947    33 H    0.944
                            31 O    0.127
    33   1 H    0.960 --    32 N    0.944
    34   1 H    0.965 --    32 N    0.947
    35   7 N    3.358 --    30 C    1.278    36 H    0.948    37 H    0.858
                            31 O    0.144
    36   1 H    0.967 --    35 N    0.948
    37   1 H    0.937 --    35 N    0.858
    38   6 C    3.959 --    39 O    1.484    40 N    1.271    43 N    1.192
    39   8 O    1.950 --    38 C    1.484    40 N    0.143    43 N    0.124
    40   7 N    3.345 --    38 C    1.271    42 H    0.925    41 H    0.869
                            39 O    0.143
    41   1 H    0.943 --    40 N    0.869
    42   1 H    0.959 --    40 N    0.925
    43   7 N    3.298 --    38 C    1.192    44 H    0.947    45 H    0.943
                            39 O    0.124
    44   1 H    0.966 --    43 N    0.947
    45   1 H    0.960 --    43 N    0.943
    46   6 C    3.959 --    47 O    1.513    51 N    1.245    48 N    1.192
    47   8 O    1.877 --    46 C    1.513    51 N    0.146    48 N    0.135
    48   7 N    3.307 --    46 C    1.192    50 H    0.948    49 H    0.946
                            47 O    0.135
    49   1 H    0.963 --    48 N    0.946
    50   1 H    0.967 --    48 N    0.948
    51   7 N    3.330 --    46 C    1.245    52 H    0.949    53 H    0.874
                            47 O    0.146
    52   1 H    0.969 --    51 N    0.949
    53   1 H    0.942 --    51 N    0.874
 ---------------------------------------------------------------------------

Topologies differ in total number of bonds
Writing topology from bond orders to xtbtopo.mol

molecular dipole:
                 x           y           z       tot (Debye)
 q only:       -0.173      -1.198       0.470
   full:        0.012      -0.613       0.099       1.579
molecular quadrupole (traceless):
                xx          xy          yy          xz          yz          zz
 q only:       22.707      -3.301       6.961      -2.047       6.243     -29.668
  q+dip:       30.808      -3.969       6.609      -3.842       9.918     -37.417
   full:       30.720      -3.920       6.295      -3.845       9.533     -37.014

           -------------------------------------------------
          |               Frequency Printout                |
           -------------------------------------------------
 projected vibrational frequencies (cm⁻¹)
eigval :       -0.00    -0.00    -0.00     0.00     0.00     0.00
eigval :      -11.47    18.30    29.17    31.76    37.65    40.48
eigval :       47.45    49.16    54.69    57.57    64.59    76.59
eigval :       79.47    86.52    97.26   105.10   113.69   116.18
eigval :      126.23   130.23   139.41   150.86   175.19   184.65
eigval :      188.78   207.52   245.05   256.62   263.46   292.36
eigval :      298.04   303.47   323.81   349.67   375.16   415.71
eigval :      428.27   430.78   437.02   451.07   458.52   463.71
eigval :      464.91   471.12   473.58   478.41   482.45   486.79
eigval :      490.14   501.48   510.39   520.00   540.55   543.99
eigval :      559.41   561.48   578.04   664.37   671.32   676.13
eigval :      679.02   713.79   734.26   749.57   762.39   787.60
eigval :      914.13   921.49   960.92   966.00   967.60   990.38
eigval :      992.90  1010.49  1010.89  1013.88  1018.52  1020.87
eigval :     1028.02  1033.63  1038.62  1087.78  1088.52  1091.92
eigval :     1092.13  1097.43  1099.14  1123.89  1155.70  1220.64
eigval :     1246.12  1272.28  1316.80  1320.81  1337.91  1351.35
eigval :     1358.19  1361.21  1368.20  1394.87  1401.49  1409.22
eigval :     1419.96  1435.44  1442.28  1450.87  1452.68  1456.57
eigval :     1458.45  1461.39  1464.36  1469.64  1474.32  1480.14
eigval :     1482.45  1501.70  1503.77  1511.02  1518.94  1651.93
eigval :     1692.88  1702.33  1717.24  2925.28  2986.01  2993.16
eigval :     2999.00  3022.26  3035.06  3041.70  3042.13  3046.73
eigval :     3047.47  3057.45  3058.37  3063.99  3126.81  3224.08
eigval :     3258.67  3334.64  3456.94  3467.64  3483.93  3497.99
eigval :     3499.84  3501.37  3508.21  3526.44  3535.45  3545.52
eigval :     3562.73  3565.95  3566.54
 reduced masses (amu)
   1: 12.72   2: 12.17   3: 12.49   4: 12.29   5: 12.53   6: 12.93   7: 12.39   8: 12.29
   9: 12.09  10: 12.28  11: 12.48  12: 12.33  13: 12.49  14: 12.43  15: 11.37  16: 12.56
  17: 12.01  18: 12.81  19: 12.90  20: 13.37  21: 12.58  22: 11.87  23: 12.22  24: 12.74
  25: 13.08  26: 13.17  27: 12.76  28: 12.43  29: 12.83  30: 10.96  31: 10.99  32: 13.10
  33:  3.13  34:  2.50  35:  4.62  36:  6.80  37:  3.55  38:  4.78  39:  4.87  40:  1.78
  41:  7.45  42:  3.21  43:  7.44  44:  2.78  45:  2.67  46:  4.21  47:  8.03  48:  6.33
  49:  3.62  50:  3.57  51:  5.87  52:  6.01  53:  7.14  54:  5.02  55:  4.99  56:  8.79
  57:  3.06  58:  2.93  59: 11.60  60: 11.29  61: 10.90  62:  9.04  63: 11.40  64: 10.85
  65: 11.38  66: 11.90  67: 11.76  68:  2.44  69:  2.44  70:  2.34  71:  9.14  72:  2.69
  73:  7.11  74:  8.16  75:  5.47  76:  4.85  77:  4.87  78:  4.70  79:  6.95  80:  8.73
  81:  8.77  82:  8.29  83:  6.03  84:  9.14  85:  9.82  86:  6.81  87:  3.78  88:  8.76
  89:  7.22  90:  8.08  91:  8.54  92:  7.50  93:  4.30  94:  7.73  95:  3.03  96:  5.18
  97:  7.66  98:  8.23  99:  3.88 100:  5.56 101:  3.47 102:  5.36 103:  4.98 104:  5.49
 105:  5.61 106:  5.02 107:  2.53 108:  2.56 109:  2.17 110:  2.52 111:  1.60 112:  3.17
 113:  1.71 114:  1.80 115:  3.00 116:  2.70 117:  2.48 118:  1.72 119:  3.17 120:  1.59
 121:  1.76 122:  7.32 123:  8.18 124:  8.42 125:  9.51 126: 12.46 127: 12.64 128: 12.75
 129: 12.68 130:  1.77 131:  1.68 132:  1.72 133:  1.80 134:  1.71 135:  1.62 136:  1.65
 137:  1.82 138:  1.86 139:  1.72 140:  1.80 141:  1.71 142:  1.69 143:  1.83 144:  1.80
 145:  1.78 146:  1.73 147:  1.88 148:  1.88 149:  1.46 150:  1.45 151:  1.46 152:  1.45
 153:  1.90 154:  1.91 155:  1.89 156:  2.17 157:  2.17 158:  2.19 159:  2.18
 IR intensities (km·mol⁻¹)
   1:  0.85   2:  1.00   3:  2.37   4:  0.97   5:  1.66   6:  1.79   7:  0.03   8:  0.44
   9:  1.24  10:  0.59  11:  3.32  12:  7.86  13:  0.92  14:  0.75  15:  0.33  16:  1.47
  17:  0.57  18:  0.50  19:  7.39  20:  4.89  21:  4.95  22:  3.07  23:  8.72  24: 19.26
  25: 14.19  26: 12.22  27:  3.41  28: 18.90  29:  1.16  30: 21.95  31: 15.55  32: 26.55
  33: 82.40  34:252.06  35:  2.34  36:  6.21  37:111.02  38: 77.24  39:  0.07  40:  1.46
  41:  6.41  42:120.59  43: 24.48  44: 57.48  45:264.73  46:102.82  47:  6.75  48:  6.29
  49: 18.55  50:  2.70  51: 23.96  52: 39.08  53: 26.62  54: 37.49  55:128.86  56: 80.19
  57:198.03  58: 38.81  59: 18.49  60: 13.12  61: 14.34  62: 29.72  63: 54.83  64:  1.16
  65: 42.58  66: 29.12  67: 19.89  68:  4.10  69:174.78  70: 21.06  71:  2.16  72:921.35
  73:  6.92  74:  4.13  75:  1.97  76:  4.57  77:  0.51  78:  8.56  79: 26.29  80: 15.95
  81: 31.96  82: 35.19  83: 10.60  84: 13.93  85:  0.63  86: 11.29  87:  3.50  88:  0.48
  89: 17.57  90:  6.57  91:  0.08  92:  1.86  93: 35.07  94: 26.68  95:  9.27  96:  3.62
  97:  1.54  98:  2.24  99:  7.84 100: 29.26 101: 50.70 102:115.18 103:140.71 104:155.24
 105: 59.61 106: 12.48 107: 25.67 108:  3.25 109: 15.64 110:  8.96 111:  0.73 112:  5.90
 113:  4.19 114:  3.45 115: 16.22 116: 21.76 117: 21.85 118:  6.63 119: 12.18 120: 45.18
 121: 13.75 122:503.14 123:528.73 124:650.34 125:401.82 126: 94.10 127:446.46 128:******
 129:****** 130: 19.16 131: 40.92 132:  8.77 133:  1.51 134: 34.69 135: 50.07 136:  0.90
 137:  1.62 138:  9.64 139: 22.12 140:  2.10 141:  1.28 142:  2.79 143:643.97 144:******
 145:794.59 146:663.83 147:133.21 148:109.37 149: 16.05 150: 14.70 151: 18.28 152: 16.81
 153: 18.96 154: 14.27 155: 14.98 156: 13.09 157:  8.32 158: 13.98 159: 14.98
 Raman intensities (amu)
Molecule has no symmetry elements
It seems to be the C1 point group
   1:  0.00   2:  0.00   3:  0.00   4:  0.00   5:  0.00   6:  0.00   7:  0.00   8:  0.00
   9:  0.00  10:  0.00  11:  0.00  12:  0.00  13:  0.00  14:  0.00  15:  0.00  16:  0.00
  17:  0.00  18:  0.00  19:  0.00  20:  0.00  21:  0.00  22:  0.00  23:  0.00  24:  0.00
  25:  0.00  26:  0.00  27:  0.00  28:  0.00  29:  0.00  30:  0.00  31:  0.00  32:  0.00
  33:  0.00  34:  0.00  35:  0.00  36:  0.00  37:  0.00  38:  0.00  39:  0.00  40:  0.00
  41:  0.00  42:  0.00  43:  0.00  44:  0.00  45:  0.00  46:  0.00  47:  0.00  48:  0.00
  49:  0.00  50:  0.00  51:  0.00  52:  0.00  53:  0.00  54:  0.00  55:  0.00  56:  0.00
  57:  0.00  58:  0.00  59:  0.00  60:  0.00  61:  0.00  62:  0.00  63:  0.00  64:  0.00
  65:  0.00  66:  0.00  67:  0.00  68:  0.00  69:  0.00  70:  0.00  71:  0.00  72:  0.00
  73:  0.00  74:  0.00  75:  0.00  76:  0.00  77:  0.00  78:  0.00  79:  0.00  80:  0.00
  81:  0.00  82:  0.00  83:  0.00  84:  0.00  85:  0.00  86:  0.00  87:  0.00  88:  0.00
  89:  0.00  90:  0.00  91:  0.00  92:  0.00  93:  0.00  94:  0.00  95:  0.00  96:  0.00
  97:  0.00  98:  0.00  99:  0.00 100:  0.00 101:  0.00 102:  0.00 103:  0.00 104:  0.00
 105:  0.00 106:  0.00 107:  0.00 108:  0.00 109:  0.00 110:  0.00 111:  0.00 112:  0.00
 113:  0.00 114:  0.00 115:  0.00 116:  0.00 117:  0.00 118:  0.00 119:  0.00 120:  0.00
 121:  0.00 122:  0.00 123:  0.00 124:  0.00 125:  0.00 126:  0.00 127:  0.00 128:  0.00
 129:  0.00 130:  0.00 131:  0.00 132:  0.00 133:  0.00 134:  0.00 135:  0.00 136:  0.00
 137:  0.00 138:  0.00 139:  0.00 140:  0.00 141:  0.00 142:  0.00 143:  0.00 144:  0.00
 145:  0.00 146:  0.00 147:  0.00 148:  0.00 149:  0.00 150:  0.00 151:  0.00 152:  0.00
 153:  0.00 154:  0.00 155:  0.00 156:  0.00 157:  0.00 158:  0.00 159:  0.00
 output can be read by thermo (or use thermo option).
 writing <g98.out> molden fake output.
 recommended (thermochemical) frequency scaling factor: 1.0
           -------------------------------------------------
          |             Thermodynamic Functions             |
           -------------------------------------------------

c1  symmetry found (for desy threshold:  0.10E+00) used in thermo
 inverting freq            1   11.467817728975630     

          ...................................................
          :                      SETUP                      :
          :.................................................:
          :  # frequencies                         153      :
          :  # imaginary freq.                       0      :
          :  linear?                             false      :
          :  only rotor calc.                    false      :
          :  symmetry                               c1      :
          :  rotational number                       1      :
          :  scaling factor                  1.0000000      :
          :  rotor cutoff                   50.0000000 cm⁻¹ :
          :  imag. cutoff                  -20.0000000 cm⁻¹ :
          :.................................................:

    mode    ω/cm⁻¹     T·S(HO)/kcal·mol⁻¹    T·S(FR)/kcal·mol⁻¹   T·S(vib)
   ------------------------------------------------------------------------
       1     11.47    -2.30736 (  0.28%)    -1.49260 ( 99.72%)    -1.49485
       2     18.30    -2.03060 (  1.76%)    -1.35422 ( 98.24%)    -1.36614
       3     29.17    -1.75458 ( 10.38%)    -1.21610 ( 89.62%)    -1.27202
       4     31.76    -1.70438 ( 14.00%)    -1.19096 ( 86.00%)    -1.26282
       5     37.65    -1.60373 ( 24.33%)    -1.14053 ( 75.67%)    -1.25324
       6     40.48    -1.56095 ( 30.05%)    -1.11908 ( 69.95%)    -1.25186
       7     47.45    -1.46718 ( 44.78%)    -1.07202 ( 55.22%)    -1.24899
       8     49.16    -1.44624 ( 48.32%)    -1.06151 ( 51.68%)    -1.24739
       9     54.69    -1.38349 ( 58.87%)    -1.02997 ( 41.13%)    -1.23808
      10     57.57    -1.35324 ( 63.74%)    -1.01475 ( 36.26%)    -1.23049
      11     64.59    -1.28560 ( 73.57%)    -0.98069 ( 26.43%)    -1.20502
      12     76.59    -1.18554 ( 84.63%)    -0.93018 ( 15.37%)    -1.14629
      13     79.47    -1.16395 ( 86.45%)    -0.91926 ( 13.55%)    -1.13080
      14     86.52    -1.11429 ( 89.96%)    -0.89410 ( 10.04%)    -1.09219
      15     97.26    -1.04606 ( 93.47%)    -0.85943 (  6.53%)    -1.03388
      16    105.10    -1.00104 ( 95.13%)    -0.83647 (  4.87%)    -0.99302
      17    113.69    -0.95554 ( 96.39%)    -0.81319 (  3.61%)    -0.95041
      18    116.18    -0.94301 ( 96.68%)    -0.80676 (  3.32%)    -0.93849
      19    126.23    -0.89527 ( 97.60%)    -0.78220 (  2.40%)    -0.89255
      20    130.23    -0.87736 ( 97.87%)    -0.77296 (  2.13%)    -0.87514
      21    139.41    -0.83840 ( 98.37%)    -0.75278 (  1.63%)    -0.83700
      22    150.86    -0.79349 ( 98.81%)    -0.72939 (  1.19%)    -0.79272
      23    175.19    -0.70933 ( 99.34%)    -0.68511 (  0.66%)    -0.70917
      24    184.65    -0.68004 ( 99.47%)    -0.66952 (  0.53%)    -0.67999
      25    188.78    -0.66779 ( 99.51%)    -0.66297 (  0.49%)    -0.66777
      26    207.52    -0.61580 ( 99.66%)    -0.63493 (  0.34%)    -0.61586
      27    245.05    -0.52651 ( 99.83%)    -0.58569 (  0.17%)    -0.52661
      28    256.62    -0.50227 ( 99.86%)    -0.57201 (  0.14%)    -0.50237
      29    263.46    -0.48859 ( 99.87%)    -0.56423 (  0.13%)    -0.48869
      30    292.36    -0.43537 ( 99.91%)    -0.53339 (  0.09%)    -0.43545
      31    298.04    -0.42572 ( 99.92%)    -0.52769 (  0.08%)    -0.42580
   ------------------------------------------------------------------------

   temp. (K)  partition function   enthalpy   heat capacity  entropy
                                   cal/mol     cal/K/mol   cal/K/mol   J/K/mol
 298.15  VIB  0.181E+17            19156.570    104.311    125.378
         ROT  0.107E+08              888.752      2.981     35.147
         INT  0.194E+24            20045.322    107.292    160.525
         TR   0.618E+28             1481.254      4.968     43.384
         TOT                       21526.5758   112.2604   203.9092   853.1563

       T/K    H(0)-H(T)+PV         H(T)/Eh          T*S/Eh         G(T)/Eh
   ------------------------------------------------------------------------
    298.15    0.343048E-01    0.474282E+00    0.968839E-01    0.377398E+00
   ------------------------------------------------------------------------

         :::::::::::::::::::::::::::::::::::::::::::::::::::::
         ::                  THERMODYNAMIC                  ::
         :::::::::::::::::::::::::::::::::::::::::::::::::::::
         :: total free energy         -80.559472934660 Eh   ::
         ::.................................................::
         :: total energy              -80.936870723761 Eh   ::
         :: zero point energy           0.439976869300 Eh   ::
         :: G(RRHO) w/o ZPVE           -0.062579080199 Eh   ::
         :: G(RRHO) contrib.            0.377397789101 Eh   ::
         :::::::::::::::::::::::::::::::::::::::::::::::::::::
imag cut-off (cm-1) :    5.00
 found            1  significant imaginary frequency
 writing imag mode distorted coords to xtbhess.xyz
 for further optimization.

           -------------------------------------------------
          | TOTAL ENERGY              -80.936870723761 Eh   |
          | TOTAL ENTHALPY            -80.462589072282 Eh   |
          | TOTAL FREE ENERGY         -80.559472934660 Eh   |
          | GRADIENT NORM               0.000097227015 Eh/α |
          | HOMO-LUMO GAP               5.597354348424 eV   |
           -------------------------------------------------

------------------------------------------------------------------------
 * finished run on 2024/01/10 at 18:24:14.406     
------------------------------------------------------------------------
 total:
 * wall-time:     0 d,  0 h,  0 min, 15.000 sec
 *  cpu-time:     0 d,  0 h,  0 min, 14.935 sec
 * ratio c/w:     0.996 speedup
 SCF:
 * wall-time:     0 d,  0 h,  0 min,  0.066 sec
 *  cpu-time:     0 d,  0 h,  0 min,  0.059 sec
 * ratio c/w:     0.891 speedup
 analytical hessian:
 * wall-time:     0 d,  0 h,  0 min, 14.906 sec
 *  cpu-time:     0 d,  0 h,  0 min, 14.849 sec
 * ratio c/w:     0.996 speedup

