 Entering Gaussian System
 *********************************************
 Gaussian 98:
 frequency output generated by the xtb code
 *********************************************
                         Standard orientation:
 --------------------------------------------------------------------
  Center     Atomic     Atomic              Coordinates (Angstroms)
  Number     Number      Type              X           Y           Z
 --------------------------------------------------------------------
    1          8             0       -2.378802   -1.157875    2.001770
    2          6             0       -1.007916   -1.392493    2.156804
    3          1             0       -0.490006   -0.482354    2.484851
    4          1             0       -0.903442   -2.132656    2.954672
    5          6             0       -0.297691   -1.848561    0.873736
    6          1             0        0.773892   -1.894307    1.073735
    7          1             0       -0.462051   -1.112459    0.082415
    8          7             0       -0.740014   -3.156232    0.310679
    9          6             0        0.215951   -3.532210   -0.745204
   10          1             0        1.211256   -3.662335   -0.326538
   11          1             0        0.239110   -2.733118   -1.487432
   12          1             0       -0.098249   -4.458160   -1.222311
   13          6             0       -2.073442   -2.998510   -0.298444
   14          1             0       -2.418569   -3.951329   -0.693894
   15          1             0       -2.003952   -2.272510   -1.107218
   16          1             0       -2.773953   -2.634291    0.450847
   17          6             0       -0.783187   -4.210812    1.333764
   18          1             0       -0.965448   -5.174614    0.861091
   19          1             0       -1.586956   -4.016533    2.040240
   20          1             0        0.165086   -4.254326    1.866821
   21          1             0       -2.487049   -0.302241    1.530515
   22          6             0        3.641215    0.030572    0.359704
   23          8             0        2.555404   -0.563606    0.334989
   24          7             0        4.701756   -0.493493    1.022128
   25          1             0        4.619236   -1.408009    1.427211
   26          1             0        5.609578   -0.067307    0.991700
   27          7             0        3.834476    1.201924   -0.259274
   28          1             0        4.704687    1.693776   -0.167598
   29          1             0        3.044076    1.702918   -0.685924
   30          6             0        0.567290    2.265403   -0.817276
   31          8             0        1.639913    2.495193   -1.368784
   32          7             0        0.421821    1.380194    0.180577
   33          1             0        1.170716    0.723343    0.373514
   34          1             0       -0.509074    1.206527    0.536348
   35          7             0       -0.573770    2.969762   -1.124604
   36          1             0       -1.447996    2.486006   -0.982278
   37          1             0       -0.516761    3.529460   -1.960862
   38          6             0        0.276541   -0.203856   -2.688015
   39          8             0       -0.532658   -0.892178   -2.071643
   40          7             0       -0.112020    0.608144   -3.703642
   41          1             0       -1.043629    0.498784   -4.064989
   42          1             0        0.567764    1.060828   -4.288302
   43          7             0        1.603407   -0.228164   -2.418752
   44          1             0        2.171609    0.521823   -2.778617
   45          1             0        1.881486   -0.559804   -1.499532
   46          6             0       -2.703667    2.295205    1.695839
   47          8             0       -2.307451    1.358174    0.996492
   48          7             0       -3.605159    2.104827    2.679775
   49          1             0       -3.982746    1.183664    2.819806
   50          1             0       -3.974807    2.862598    3.223791
   51          7             0       -2.246744    3.549126    1.516953
   52          1             0       -2.543555    4.312933    2.095882
   53          1             0       -1.536888    3.712820    0.819088
 --------------------------------------------------------------------
     1 basis functions        1 primitive gaussians
     1 alpha electrons        1 beta electrons

 Harmonic frequencies (cm**-1), IR intensities (km*mol⁻¹),
 Raman scattering activities (A**4/amu), Raman depolarization ratios,
 reduced masses (AMU), force constants (mDyne/A) and normal coordinates:
                      1                      2                      3
                        a                      a                      a 
 Frequencies --    16.2857                25.5126                30.4996
 Red. masses --    11.6459                12.1017                12.1959
 Frc consts  --     0.0000                 0.0000                 0.0000
 IR Inten    --     0.4864                 5.5911                 1.8083
 Raman Activ --     0.0000                 0.0000                 0.0000
 Depolar     --     0.0000                 0.0000                 0.0000
 Atom AN      X      Y      Z        X      Y      Z        X      Y      Z
   1   8    -0.18   0.07  -0.16     0.23   0.00   0.28    -0.19   0.09  -0.15
   2   6    -0.17   0.07   0.00     0.20  -0.04   0.11    -0.19   0.05  -0.02
   3   1    -0.06   0.02   0.02     0.08  -0.02   0.03    -0.06   0.01   0.02
   4   1    -0.07   0.02   0.00     0.07  -0.02   0.02    -0.08   0.01  -0.01
   5   6    -0.04   0.09   0.07     0.07  -0.01   0.03    -0.08   0.07   0.04
   6   1    -0.01   0.06   0.04     0.02  -0.03  -0.02    -0.03   0.02   0.04
   7   1    -0.02   0.02   0.01     0.02   0.02   0.02    -0.01   0.02   0.01
   8   7     0.14   0.04   0.08    -0.07   0.07  -0.02    -0.03   0.08  -0.02
   9   6     0.20   0.14   0.10    -0.16   0.04  -0.10     0.05   0.11   0.04
  10   1     0.06   0.08   0.04    -0.04  -0.02  -0.05     0.01   0.04   0.03
  11   1     0.03   0.04   0.02    -0.04   0.02  -0.02     0.02   0.03   0.02
  12   1     0.10   0.02   0.03    -0.08   0.03  -0.04     0.03   0.03   0.00
  13   6     0.12  -0.14   0.05    -0.09   0.20   0.06     0.01   0.07  -0.11
  14   1     0.07  -0.05   0.02    -0.05   0.07   0.00     0.02   0.02  -0.04
  15   1     0.02  -0.04   0.01    -0.02   0.07   0.03     0.02   0.03  -0.02
  16   1     0.02  -0.06   0.01    -0.01   0.06   0.04    -0.01   0.01  -0.04
  17   6     0.24   0.04   0.09    -0.10   0.01  -0.08    -0.09   0.06  -0.04
  18   1     0.11   0.00   0.03    -0.06   0.01  -0.03    -0.01   0.02  -0.02
  19   1     0.06  -0.02   0.02    -0.01   0.01  -0.00    -0.04   0.01  -0.03
  20   1     0.07   0.05   0.03    -0.02  -0.03  -0.04    -0.04   0.02   0.01
  21   1    -0.03   0.01  -0.05     0.05  -0.00   0.07    -0.03   0.02  -0.04
  22   6     0.05  -0.16  -0.10     0.09  -0.04  -0.06     0.05   0.03  -0.06
  23   8     0.02  -0.12  -0.07     0.09  -0.02  -0.00     0.08   0.00   0.05
  24   7     0.07  -0.25  -0.21     0.13  -0.06  -0.13     0.11   0.13  -0.07
  25   1     0.01  -0.07  -0.06     0.04  -0.01  -0.03     0.04   0.04   0.01
  26   1     0.02  -0.08  -0.06     0.03  -0.02  -0.04     0.03   0.04  -0.04
  27   7     0.07  -0.15  -0.07     0.08  -0.04  -0.08    -0.00  -0.03  -0.21
  28   1     0.03  -0.06  -0.03     0.02  -0.01  -0.03    -0.01   0.00  -0.08
  29   1     0.02  -0.03  -0.00     0.01  -0.01  -0.01    -0.01  -0.02  -0.05
  30   6     0.09   0.02   0.08     0.03  -0.06   0.06    -0.05  -0.12   0.01
  31   8     0.10  -0.01   0.06     0.01  -0.06   0.04    -0.12  -0.19  -0.14
  32   7     0.10   0.05   0.11     0.09   0.02   0.16     0.09   0.03   0.18
  33   1     0.02   0.00   0.02     0.03   0.01   0.04     0.03   0.01   0.04
  34   1     0.03   0.01   0.03     0.03  -0.00   0.04     0.03   0.00   0.06
  35   7     0.11   0.04   0.10    -0.02  -0.17   0.01    -0.10  -0.22   0.03
  36   1     0.03   0.02   0.04     0.01  -0.06   0.01    -0.02  -0.05   0.09
  37   1     0.02   0.01   0.02    -0.01  -0.07  -0.01    -0.07  -0.10  -0.02
  38   6    -0.11   0.06   0.05     0.02   0.09   0.05     0.13  -0.04  -0.01
  39   8    -0.10   0.05   0.08    -0.04   0.22   0.11     0.05   0.14   0.06
  40   7    -0.16   0.10   0.10     0.10   0.08   0.02     0.26  -0.14  -0.13
  41   1    -0.05   0.03   0.04     0.02   0.04   0.01     0.06  -0.00  -0.03
  42   1    -0.05   0.03   0.02     0.04  -0.00  -0.00     0.08  -0.05  -0.03
  43   7    -0.10   0.04  -0.01     0.03  -0.04   0.04     0.14  -0.17   0.01
  44   1    -0.03   0.01  -0.00     0.03  -0.03  -0.01     0.06  -0.07  -0.02
  45   1    -0.02   0.00  -0.01     0.00  -0.00   0.01     0.02  -0.02   0.02
  46   6    -0.10   0.01  -0.08    -0.15  -0.04  -0.10    -0.03   0.01   0.12
  47   8     0.00   0.08  -0.12     0.04  -0.09   0.06    -0.03   0.13  -0.02
  48   7    -0.21  -0.09  -0.20    -0.24  -0.03  -0.18     0.12  -0.17   0.23
  49   1    -0.05  -0.03  -0.08    -0.03  -0.02  -0.02     0.05  -0.06   0.04
  50   1    -0.08  -0.04  -0.05    -0.10  -0.00  -0.08     0.02  -0.07   0.09
  51   7    -0.14   0.04   0.05    -0.32  -0.01  -0.24    -0.17   0.07   0.20
  52   1    -0.06  -0.00   0.02    -0.12   0.01  -0.09    -0.04  -0.00   0.09
  53   1    -0.02   0.03   0.04    -0.07  -0.00  -0.04    -0.06   0.05   0.05
                      4                      5                      6
                        a                      a                      a 
 Frequencies --    35.3305                38.9269                41.8771
 Red. masses --    11.8373                12.4584                12.0173
 Frc consts  --     0.0000                 0.0000                 0.0000
 IR Inten    --     8.1048                 3.1917                 2.9633
 Raman Activ --     0.0000                 0.0000                 0.0000
 Depolar     --     0.0000                 0.0000                 0.0000
 Atom AN      X      Y      Z        X      Y      Z        X      Y      Z
   1   8     0.08   0.17  -0.06    -0.09   0.00   0.06     0.20   0.10   0.04
   2   6     0.06   0.10  -0.06    -0.08   0.01   0.07     0.19   0.08  -0.07
   3   1     0.03   0.03  -0.04    -0.03   0.00   0.03     0.06   0.02  -0.03
   4   1     0.01   0.04   0.00    -0.03  -0.00   0.02     0.07   0.03  -0.02
   5   6     0.02  -0.05  -0.03    -0.05   0.06   0.07     0.08   0.07  -0.12
   6   1     0.00  -0.04  -0.01    -0.02   0.02   0.02     0.03   0.03  -0.06
   7   1     0.03  -0.02  -0.02    -0.02   0.02   0.03    -0.00   0.01  -0.04
   8   7    -0.12  -0.04   0.05    -0.01   0.07   0.04     0.08   0.04  -0.05
   9   6    -0.13  -0.22   0.10    -0.00   0.13   0.02    -0.02   0.05  -0.14
  10   1    -0.05  -0.09   0.04     0.00   0.05   0.00     0.01   0.03  -0.07
  11   1    -0.01  -0.08   0.01    -0.01   0.04   0.01    -0.04   0.01  -0.05
  12   1    -0.07  -0.06   0.04     0.01   0.04  -0.00    -0.01   0.01  -0.02
  13   6    -0.08   0.06   0.01    -0.02   0.03   0.05     0.01  -0.03   0.09
  14   1    -0.05   0.02   0.02     0.01   0.01   0.00    -0.00  -0.01   0.04
  15   1     0.00  -0.00  -0.01    -0.02   0.02   0.02    -0.03  -0.01   0.02
  16   1    -0.02   0.05  -0.01    -0.01  -0.01   0.02     0.02  -0.01   0.04
  17   6    -0.26   0.04   0.13     0.03   0.03   0.00     0.23   0.06  -0.02
  18   1    -0.10   0.01   0.06     0.02   0.01  -0.01     0.07   0.01   0.01
  19   1    -0.07   0.05   0.03     0.01  -0.01   0.00     0.09   0.01   0.02
  20   1    -0.08  -0.01   0.04     0.01   0.01  -0.00     0.08   0.03  -0.03
  21   1     0.03   0.03  -0.04    -0.02  -0.01  -0.02     0.04   0.02   0.01
  22   6     0.06   0.04  -0.04    -0.03  -0.03   0.05    -0.11  -0.09   0.11
  23   8     0.06   0.07  -0.02    -0.04  -0.02  -0.01    -0.12  -0.10   0.02
  24   7     0.09  -0.00  -0.10    -0.07  -0.05   0.09    -0.21  -0.04   0.32
  25   1     0.02  -0.00  -0.04    -0.03  -0.02   0.02    -0.07  -0.01   0.09
  26   1     0.03  -0.01  -0.03    -0.02  -0.02   0.04    -0.05  -0.02   0.10
  27   7     0.07   0.06  -0.01     0.00  -0.02   0.09    -0.03  -0.15   0.04
  28   1     0.02   0.01  -0.01     0.00  -0.01   0.04    -0.01  -0.04   0.04
  29   1     0.02   0.02   0.01     0.01   0.00   0.02     0.00  -0.04  -0.02
  30   6     0.08   0.11   0.02     0.04   0.00  -0.07     0.06   0.02  -0.08
  31   8     0.10   0.13   0.02     0.08   0.05   0.00     0.08  -0.13  -0.14
  32   7     0.07   0.04  -0.05     0.01   0.03  -0.06     0.01   0.08  -0.04
  33   1     0.02   0.01  -0.02     0.00   0.01  -0.01    -0.01   0.00  -0.01
  34   1     0.02   0.01  -0.02    -0.00  -0.01  -0.04     0.00   0.04  -0.00
  35   7     0.11   0.17   0.09     0.02  -0.07  -0.19     0.13   0.12  -0.07
  36   1     0.02   0.06   0.03     0.01  -0.04  -0.08     0.02   0.07   0.01
  37   1     0.03   0.06   0.03     0.02  -0.02  -0.05     0.04   0.02  -0.03
  38   6     0.02  -0.08  -0.00    -0.06   0.12   0.07    -0.06  -0.04  -0.09
  39   8     0.14  -0.29  -0.08    -0.09   0.19   0.12    -0.14   0.02  -0.12
  40   7    -0.10  -0.04   0.08    -0.06   0.17   0.10     0.04  -0.07  -0.15
  41   1    -0.02  -0.04   0.02    -0.02   0.06   0.04     0.01  -0.00  -0.05
  42   1    -0.04   0.03   0.03    -0.02   0.03   0.01     0.02  -0.03  -0.03
  43   7     0.03   0.11   0.01    -0.05   0.03   0.00    -0.07  -0.12  -0.03
  44   1    -0.02   0.06   0.03    -0.00  -0.00  -0.01    -0.01  -0.04  -0.01
  45   1     0.02   0.01  -0.01    -0.01   0.00  -0.00    -0.03  -0.02  -0.00
  46   6    -0.06  -0.08  -0.02     0.10  -0.16  -0.12    -0.08   0.03   0.11
  47   8     0.01   0.08  -0.22    -0.00  -0.16  -0.25     0.04   0.13   0.07
  48   7     0.05  -0.37   0.02     0.47  -0.27   0.19    -0.03  -0.15   0.13
  49   1     0.05  -0.12  -0.02     0.15  -0.08   0.07     0.03  -0.06   0.02
  50   1    -0.01  -0.14   0.04     0.13  -0.08   0.06    -0.04  -0.06   0.04
  51   7    -0.26  -0.00   0.12    -0.11  -0.12  -0.31    -0.30   0.12   0.13
  52   1    -0.07  -0.04   0.08     0.02  -0.05  -0.04    -0.09   0.01   0.06
  53   1    -0.07   0.05   0.04    -0.07  -0.02  -0.12    -0.07   0.06   0.05
                      7                      8                      9
                        a                      a                      a 
 Frequencies --    47.2310                49.3092                56.7077
 Red. masses --    12.5988                12.1726                12.3074
 Frc consts  --     0.0000                 0.0000                 0.0000
 IR Inten    --     2.0517                 1.2789                 2.9234
 Raman Activ --     0.0000                 0.0000                 0.0000
 Depolar     --     0.0000                 0.0000                 0.0000
 Atom AN      X      Y      Z        X      Y      Z        X      Y      Z
   1   8    -0.05  -0.01   0.07    -0.04  -0.08   0.22     0.12   0.16  -0.01
   2   6    -0.05  -0.03   0.08    -0.01   0.06   0.14     0.12   0.16  -0.11
   3   1    -0.01  -0.01   0.03    -0.02   0.03   0.04     0.04   0.05  -0.06
   4   1    -0.02  -0.02   0.02     0.03   0.02   0.04     0.05   0.06  -0.02
   5   6    -0.03  -0.00   0.08    -0.02   0.13   0.11     0.02   0.09  -0.14
   6   1    -0.01  -0.01   0.03    -0.00   0.05   0.02     0.01   0.03  -0.06
   7   1    -0.00   0.01   0.03    -0.02   0.05   0.04    -0.02   0.01  -0.05
   8   7    -0.06   0.03   0.03     0.01   0.15   0.07    -0.01   0.05  -0.02
   9   6    -0.06   0.06   0.01     0.06   0.15   0.12    -0.12   0.01  -0.10
  10   1    -0.02   0.01   0.00     0.01   0.04   0.05    -0.02   0.01  -0.06
  11   1    -0.01   0.02   0.01     0.03   0.05   0.04    -0.06  -0.01  -0.04
  12   1    -0.02   0.02  -0.01     0.03   0.05   0.03    -0.05  -0.01  -0.01
  13   6    -0.05   0.07   0.02     0.04   0.15  -0.00    -0.08  -0.01   0.12
  14   1    -0.01   0.03  -0.01     0.02   0.05  -0.01    -0.03  -0.01   0.06
  15   1    -0.01   0.03   0.02     0.02   0.05   0.00    -0.06  -0.01   0.02
  16   1    -0.02   0.01   0.01     0.00   0.04  -0.01    -0.00  -0.00   0.05
  17   6    -0.07  -0.01  -0.02    -0.06   0.13   0.06     0.13   0.10   0.05
  18   1    -0.03   0.00  -0.02    -0.01   0.04   0.01     0.03   0.02   0.04
  19   1    -0.02  -0.01  -0.00    -0.03   0.04   0.01     0.06   0.04   0.04
  20   1    -0.02  -0.02  -0.01    -0.02   0.03   0.03     0.05   0.05  -0.02
  21   1    -0.00  -0.01  -0.00    -0.03  -0.03   0.05     0.01   0.02  -0.04
  22   6     0.01   0.07  -0.01    -0.06  -0.07  -0.05     0.01   0.02   0.07
  23   8     0.04   0.03  -0.04    -0.11  -0.02  -0.07     0.02   0.02   0.08
  24   7    -0.07   0.26   0.26    -0.07  -0.23  -0.17     0.06  -0.04  -0.06
  25   1    -0.02   0.08   0.09    -0.03  -0.07  -0.06     0.02  -0.01  -0.02
  26   1    -0.02   0.06   0.05    -0.01  -0.07  -0.03     0.01   0.00  -0.00
  27   7     0.05  -0.05  -0.22    -0.03  -0.02   0.08    -0.04   0.10   0.19
  28   1     0.00   0.01  -0.03     0.00  -0.02   0.02    -0.01   0.02   0.04
  29   1     0.01  -0.02  -0.07    -0.00   0.01   0.03    -0.01   0.02   0.05
  30   6     0.07   0.02  -0.12    -0.01   0.09  -0.01    -0.05  -0.07   0.12
  31   8     0.06  -0.06  -0.22     0.04   0.12   0.10    -0.08  -0.03   0.12
  32   7     0.09   0.05  -0.10    -0.11   0.02  -0.10     0.04   0.03   0.24
  33   1     0.02   0.00  -0.04    -0.03   0.01  -0.02     0.02   0.01   0.06
  34   1     0.02   0.01  -0.03    -0.04   0.01  -0.04     0.01  -0.02   0.04
  35   7     0.10   0.09  -0.06     0.04   0.17  -0.04    -0.12  -0.24   0.05
  36   1     0.02   0.04   0.00     0.00   0.04  -0.06    -0.02  -0.08   0.04
  37   1     0.02   0.02  -0.02     0.04   0.07   0.00    -0.05  -0.09  -0.00
  38   6    -0.04   0.04   0.07     0.10  -0.02  -0.15    -0.07  -0.01  -0.03
  39   8    -0.07   0.15   0.16     0.10   0.07  -0.09    -0.15   0.03  -0.07
  40   7    -0.05   0.07   0.10     0.15  -0.24  -0.35     0.02  -0.09  -0.13
  41   1    -0.03   0.05   0.05     0.04  -0.09  -0.10     0.01  -0.03  -0.05
  42   1    -0.02   0.01   0.02     0.04  -0.09  -0.11     0.02  -0.03  -0.03
  43   7    -0.02  -0.11  -0.05     0.09   0.07  -0.08    -0.10   0.01   0.09
  44   1     0.01  -0.05  -0.03     0.03   0.01  -0.04    -0.02  -0.01   0.02
  45   1     0.00  -0.02  -0.01     0.01   0.05  -0.01    -0.04   0.01   0.03
  46   6     0.05  -0.15  -0.01    -0.03  -0.15   0.05     0.05  -0.05  -0.11
  47   8     0.09  -0.11  -0.09    -0.06  -0.19   0.06    -0.14   0.01  -0.35
  48   7    -0.21  -0.20  -0.27    -0.10  -0.11   0.00     0.03  -0.09  -0.15
  49   1    -0.07  -0.05  -0.11    -0.04  -0.03   0.00    -0.02  -0.02  -0.08
  50   1    -0.04  -0.07  -0.04    -0.01  -0.03   0.01     0.07  -0.04   0.02
  51   7     0.28  -0.20   0.31     0.08  -0.19   0.11     0.33  -0.12   0.16
  52   1     0.04  -0.06   0.07     0.02  -0.05   0.02     0.10  -0.04   0.06
  53   1     0.09  -0.04   0.10     0.02  -0.06   0.03     0.06  -0.02   0.02
                     10                     11                     12
                        a                      a                      a 
 Frequencies --    61.3925                64.0844                70.5978
 Red. masses --    12.3451                12.3515                13.0761
 Frc consts  --     0.0000                 0.0000                 0.0000
 IR Inten    --     9.5381                 2.1539                 1.9566
 Raman Activ --     0.0000                 0.0000                 0.0000
 Depolar     --     0.0000                 0.0000                 0.0000
 Atom AN      X      Y      Z        X      Y      Z        X      Y      Z
   1   8    -0.10  -0.05  -0.06    -0.06  -0.07  -0.00     0.04  -0.01   0.04
   2   6    -0.10  -0.12   0.02    -0.04  -0.04  -0.04     0.05   0.07  -0.03
   3   1    -0.02  -0.05   0.03    -0.01  -0.01  -0.02     0.01   0.03  -0.03
   4   1    -0.05  -0.05  -0.01    -0.00  -0.01  -0.01     0.04   0.03  -0.00
   5   6    -0.05  -0.07   0.03    -0.07  -0.02  -0.06     0.01   0.05  -0.04
   6   1    -0.02  -0.02   0.02    -0.02   0.01  -0.03     0.00   0.02  -0.02
   7   1    -0.01  -0.01   0.02    -0.04  -0.01  -0.02    -0.01   0.01  -0.02
   8   7    -0.04  -0.05  -0.04    -0.04  -0.06  -0.03     0.01   0.03   0.02
   9   6    -0.03   0.02  -0.06    -0.10  -0.00  -0.11     0.01  -0.01   0.02
  10   1    -0.01   0.00  -0.02    -0.02   0.02  -0.05     0.00   0.00   0.01
  11   1    -0.01   0.02  -0.01    -0.06  -0.00  -0.03    -0.00  -0.01  -0.00
  12   1    -0.01   0.01  -0.03    -0.02  -0.01  -0.02     0.00  -0.01   0.02
  13   6    -0.04  -0.04  -0.02    -0.09  -0.14   0.08     0.01  -0.01   0.02
  14   1    -0.01  -0.01  -0.02    -0.02  -0.05   0.03     0.00  -0.01   0.02
  15   1    -0.02   0.00   0.01    -0.06  -0.04   0.02    -0.00  -0.01  -0.00
  16   1    -0.01  -0.03   0.00    -0.02  -0.05   0.04     0.00   0.01   0.00
  17   6    -0.01  -0.11  -0.10     0.13  -0.06  -0.02     0.03   0.07   0.06
  18   1     0.00  -0.03  -0.04     0.05  -0.02  -0.00     0.01   0.01   0.03
  19   1    -0.00  -0.05  -0.02     0.05  -0.03   0.01     0.01   0.03   0.02
  20   1    -0.00  -0.03  -0.03     0.05   0.01  -0.03     0.01   0.03   0.02
  21   1    -0.00  -0.01  -0.01    -0.02  -0.02   0.00    -0.01  -0.01   0.00
  22   6     0.09   0.09   0.01     0.02   0.05   0.01    -0.02  -0.07  -0.06
  23   8     0.10   0.12  -0.02    -0.08   0.22   0.39    -0.06  -0.02   0.09
  24   7     0.04   0.14   0.14     0.14  -0.07  -0.28    -0.11   0.13   0.23
  25   1     0.01   0.03   0.03     0.02   0.02   0.01    -0.04   0.06   0.11
  26   1     0.02   0.02   0.03     0.04  -0.03  -0.10    -0.01  -0.01  -0.01
  27   7     0.16   0.06  -0.05     0.03  -0.04  -0.16     0.11  -0.36  -0.58
  28   1     0.04   0.02   0.01     0.04  -0.05  -0.13     0.02  -0.08  -0.13
  29   1     0.04   0.02  -0.01     0.00   0.01  -0.01     0.01  -0.06  -0.09
  30   6     0.12   0.08   0.12     0.01   0.14  -0.07    -0.05   0.02   0.17
  31   8     0.14   0.13   0.15     0.06   0.11  -0.02    -0.05   0.11   0.26
  32   7     0.14   0.10   0.14    -0.09   0.14  -0.11    -0.08  -0.08   0.08
  33   1     0.04   0.03   0.03    -0.02   0.05   0.01    -0.02  -0.02   0.02
  34   1     0.04   0.02   0.03    -0.03   0.04  -0.04    -0.03  -0.03   0.01
  35   7     0.11   0.05   0.10     0.06   0.21  -0.15    -0.07   0.03   0.22
  36   1     0.03  -0.00   0.01     0.01   0.06  -0.07    -0.01  -0.02   0.01
  37   1     0.03   0.02   0.03     0.04   0.06  -0.03    -0.01   0.03   0.07
  38   6    -0.16  -0.07  -0.04     0.02  -0.04   0.12     0.05   0.03  -0.06
  39   8    -0.18   0.06   0.13    -0.15   0.01  -0.02     0.08  -0.06  -0.14
  40   7    -0.16  -0.43  -0.33     0.26  -0.01   0.07     0.04   0.06  -0.03
  41   1    -0.04  -0.15  -0.08     0.08   0.02  -0.02     0.02  -0.00  -0.02
  42   1    -0.04  -0.16  -0.12     0.11  -0.00   0.06     0.01   0.03  -0.00
  43   7    -0.19   0.09   0.04    -0.02  -0.15   0.35     0.04   0.11   0.00
  44   1    -0.05  -0.00  -0.04     0.02  -0.05   0.11     0.01   0.04   0.01
  45   1    -0.05   0.07   0.03    -0.05  -0.03   0.11     0.01   0.02  -0.00
  46   6     0.05   0.01  -0.03     0.00  -0.04   0.02    -0.01  -0.02  -0.07
  47   8     0.14  -0.01   0.05    -0.01  -0.05   0.03    -0.14  -0.07  -0.10
  48   7     0.07   0.01  -0.01     0.00  -0.02   0.03     0.07   0.04   0.02
  49   1     0.03   0.00   0.01    -0.00  -0.00   0.01     0.00   0.02   0.01
  50   1    -0.01   0.01  -0.03     0.00  -0.00   0.01     0.04   0.02   0.01
  51   7    -0.06   0.04  -0.13     0.01  -0.04   0.01     0.04  -0.06  -0.13
  52   1    -0.02   0.01  -0.04     0.00  -0.01   0.00     0.04  -0.01  -0.03
  53   1    -0.01   0.01  -0.03     0.00  -0.01   0.00    -0.00  -0.03  -0.05
                     13                     14                     15
                        a                      a                      a 
 Frequencies --    79.6758                81.7581                95.8642
 Red. masses --    12.3811                12.0624                12.1349
 Frc consts  --     0.0000                 0.0000                 0.0000
 IR Inten    --     7.6592                 2.4519                 6.1943
 Raman Activ --     0.0000                 0.0000                 0.0000
 Depolar     --     0.0000                 0.0000                 0.0000
 Atom AN      X      Y      Z        X      Y      Z        X      Y      Z
   1   8     0.21   0.07  -0.13    -0.01   0.14  -0.03    -0.06   0.04   0.05
   2   6     0.14  -0.07  -0.00    -0.04  -0.04   0.02    -0.08  -0.13   0.09
   3   1     0.06  -0.04   0.01     0.01  -0.03   0.02    -0.00  -0.06   0.05
   4   1    -0.00  -0.03   0.00    -0.05  -0.02   0.00    -0.06  -0.06   0.01
   5   6     0.21  -0.14   0.06    -0.02  -0.09   0.05    -0.07  -0.11   0.09
   6   1     0.05  -0.08   0.05    -0.01  -0.03   0.02    -0.02  -0.03   0.03
   7   1     0.11  -0.03   0.02     0.01  -0.03   0.01    -0.01  -0.03   0.03
   8   7     0.11  -0.07  -0.03    -0.04  -0.09   0.06    -0.06  -0.11   0.07
   9   6     0.14  -0.12   0.03    -0.15   0.02  -0.10    -0.14   0.00  -0.05
  10   1     0.03  -0.07   0.03    -0.03   0.01  -0.07    -0.03  -0.00  -0.04
  11   1     0.09  -0.03   0.02    -0.08   0.02  -0.01    -0.06   0.02   0.00
  12   1     0.02  -0.02  -0.01    -0.05   0.01  -0.04    -0.05   0.01  -0.03
  13   6     0.17   0.12  -0.13    -0.12  -0.11   0.23    -0.12  -0.14   0.21
  14   1     0.03   0.05  -0.07    -0.04  -0.03   0.06    -0.04  -0.04   0.07
  15   1     0.09   0.06  -0.01    -0.07  -0.02   0.08    -0.06  -0.04   0.06
  16   1     0.04   0.03  -0.04    -0.01  -0.05   0.10    -0.02  -0.05   0.08
  17   6    -0.10  -0.10  -0.09     0.17  -0.14   0.00     0.12  -0.17   0.01
  18   1    -0.06  -0.02  -0.04     0.05  -0.04  -0.01     0.05  -0.05  -0.01
  19   1    -0.03  -0.01  -0.04     0.07  -0.07   0.04     0.05  -0.08   0.03
  20   1    -0.04  -0.08  -0.01     0.07  -0.03  -0.04     0.05  -0.03  -0.02
  21   1     0.07   0.02  -0.04     0.02   0.03  -0.02     0.02   0.01   0.01
  22   6    -0.15  -0.06  -0.02    -0.00  -0.00  -0.07    -0.13   0.00  -0.04
  23   8    -0.22   0.02   0.06     0.08  -0.14  -0.23    -0.18   0.07  -0.04
  24   7    -0.17  -0.14  -0.08     0.01   0.07  -0.03    -0.18  -0.06  -0.02
  25   1    -0.06  -0.02   0.01     0.03  -0.00  -0.05    -0.07  -0.01  -0.00
  26   1    -0.04  -0.05  -0.02    -0.01   0.04   0.01    -0.04  -0.03  -0.00
  27   7    -0.11  -0.10  -0.08    -0.09   0.07   0.04    -0.06  -0.02  -0.05
  28   1    -0.02  -0.04  -0.04    -0.04   0.04   0.04    -0.01  -0.02  -0.01
  29   1    -0.03  -0.01  -0.01    -0.03   0.01   0.01    -0.01   0.01  -0.01
  30   6    -0.06   0.09  -0.00    -0.05   0.02   0.04     0.02   0.06  -0.00
  31   8    -0.06   0.05   0.01    -0.05   0.09   0.09    -0.02   0.05  -0.11
  32   7    -0.08   0.19   0.09    -0.11  -0.24  -0.21     0.17   0.33   0.26
  33   1    -0.03   0.04   0.02    -0.03  -0.07  -0.08     0.03   0.06   0.04
  34   1    -0.03   0.03  -0.01    -0.03  -0.06  -0.05     0.04   0.06   0.05
  35   7    -0.06   0.06  -0.08    -0.00   0.21   0.26    -0.05  -0.12  -0.13
  36   1    -0.02   0.03  -0.01    -0.01   0.05   0.03    -0.00  -0.04   0.02
  37   1    -0.01   0.00  -0.03     0.01   0.11   0.11    -0.04  -0.08  -0.07
  38   6    -0.00   0.02   0.15     0.13   0.02   0.04     0.16   0.06  -0.08
  39   8     0.02   0.17   0.38     0.10   0.23   0.22     0.30  -0.08  -0.10
  40   7    -0.04  -0.18   0.03     0.16  -0.08  -0.04     0.03   0.06  -0.04
  41   1    -0.02  -0.04   0.04     0.02   0.02   0.03     0.01  -0.02  -0.01
  42   1    -0.02  -0.07  -0.02     0.04  -0.05  -0.04    -0.01   0.04  -0.01
  43   7     0.01  -0.01   0.08     0.16  -0.14  -0.09     0.17   0.25  -0.12
  44   1     0.01  -0.03  -0.02     0.06  -0.07  -0.07     0.02   0.10  -0.01
  45   1     0.01   0.03   0.03     0.05  -0.02  -0.02     0.05   0.05  -0.04
  46   6    -0.00   0.06  -0.06    -0.03   0.05  -0.06     0.05   0.02  -0.00
  47   8    -0.11   0.12  -0.20    -0.10   0.10  -0.17     0.12   0.04   0.01
  48   7     0.05   0.01  -0.02     0.04  -0.01  -0.01     0.00  -0.02  -0.06
  49   1    -0.00   0.00  -0.03     0.01  -0.00  -0.02     0.01  -0.01  -0.02
  50   1     0.03  -0.01   0.02     0.01  -0.01   0.01    -0.01  -0.01  -0.01
  51   7     0.07   0.05   0.05    -0.04   0.06  -0.02     0.03   0.03   0.03
  52   1     0.04   0.00   0.04     0.01   0.01   0.02    -0.01   0.01   0.00
  53   1     0.01   0.02   0.01    -0.01   0.02  -0.01     0.01   0.02   0.02
                     16                     17                     18
                        a                      a                      a 
 Frequencies --   104.2550               108.8195               127.5817
 Red. masses --    12.6610                11.9155                13.5034
 Frc consts  --     0.0000                 0.0000                 0.0000
 IR Inten    --     5.2319                 0.2520                 3.3544
 Raman Activ --     0.0000                 0.0000                 0.0000
 Depolar     --     0.0000                 0.0000                 0.0000
 Atom AN      X      Y      Z        X      Y      Z        X      Y      Z
   1   8     0.02   0.05   0.09     0.03   0.18   0.07    -0.01  -0.09  -0.05
   2   6    -0.01  -0.08   0.12    -0.04  -0.13   0.18     0.03   0.07  -0.09
   3   1     0.01  -0.04   0.07     0.03  -0.08   0.12    -0.01   0.04  -0.06
   4   1    -0.03  -0.05   0.01    -0.09  -0.08   0.02     0.04   0.04  -0.01
   5   6     0.02   0.01   0.10     0.05  -0.07   0.21    -0.01   0.02  -0.10
   6   1     0.00  -0.00   0.04     0.01  -0.04   0.09    -0.00   0.02  -0.04
   7   1     0.01   0.02   0.05     0.05   0.01   0.08    -0.02  -0.01  -0.04
   8   7     0.04   0.05  -0.00     0.04   0.03   0.01    -0.02  -0.02   0.00
   9   6     0.09   0.10   0.02     0.02   0.18  -0.06    -0.03  -0.09   0.02
  10   1     0.02   0.04   0.01     0.01   0.05  -0.03    -0.01  -0.04   0.01
  11   1     0.02   0.03   0.01    -0.01   0.08   0.01     0.00  -0.03  -0.00
  12   1     0.04   0.03  -0.00     0.01   0.07  -0.05    -0.02  -0.03   0.01
  13   6     0.07   0.10  -0.06     0.03   0.15   0.06    -0.02  -0.07   0.00
  14   1     0.02   0.04  -0.03    -0.00   0.06  -0.02    -0.00  -0.03   0.01
  15   1     0.03   0.04  -0.01     0.01   0.07   0.04    -0.01  -0.03  -0.01
  16   1     0.01   0.02  -0.02     0.01   0.02   0.03    -0.01  -0.01  -0.00
  17   6    -0.03  -0.03  -0.08     0.05  -0.15  -0.17    -0.00   0.07   0.09
  18   1    -0.00   0.00  -0.05     0.01  -0.02  -0.10     0.00   0.01   0.05
  19   1    -0.02  -0.02  -0.03     0.02  -0.08  -0.03     0.00   0.04   0.02
  20   1    -0.02  -0.02  -0.01     0.02  -0.07  -0.06     0.00   0.03   0.03
  21   1     0.04   0.01   0.01     0.06   0.05   0.01    -0.02  -0.02  -0.01
  22   6    -0.14   0.01   0.01     0.06   0.00   0.12    -0.05   0.09   0.13
  23   8    -0.12  -0.07   0.07     0.02   0.09   0.36    -0.17   0.28   0.40
  24   7    -0.08   0.05  -0.09     0.14  -0.03  -0.01     0.01  -0.09  -0.13
  25   1    -0.01   0.02  -0.00     0.03   0.01   0.04    -0.04   0.03   0.07
  26   1    -0.03   0.04  -0.01     0.04  -0.02  -0.04     0.00  -0.02   0.00
  27   7    -0.26   0.04   0.05     0.07  -0.07  -0.01     0.00   0.03   0.04
  28   1    -0.07   0.01  -0.01     0.03  -0.03  -0.05     0.03  -0.03  -0.07
  29   1    -0.07  -0.00  -0.01     0.01  -0.02   0.01     0.00   0.00  -0.00
  30   6    -0.02   0.06   0.09    -0.03  -0.12  -0.07     0.03  -0.10   0.03
  31   8    -0.14   0.03  -0.15     0.00  -0.11   0.01    -0.03  -0.29  -0.19
  32   7     0.14   0.02   0.07    -0.12  -0.28  -0.22     0.06  -0.10   0.02
  33   1     0.04  -0.01  -0.02    -0.01  -0.04  -0.02     0.01  -0.05  -0.02
  34   1     0.05   0.01   0.06    -0.03  -0.04  -0.04     0.02  -0.01   0.03
  35   7    -0.06   0.16   0.40    -0.00  -0.08  -0.06     0.09   0.12   0.27
  36   1    -0.00   0.02   0.10    -0.01  -0.00  -0.01     0.02   0.04   0.06
  37   1    -0.04   0.06   0.12     0.00  -0.01  -0.01     0.02   0.04   0.08
  38   6    -0.04  -0.11  -0.05    -0.05   0.02  -0.09     0.01   0.10  -0.07
  39   8    -0.13  -0.18  -0.23     0.03  -0.12  -0.15     0.11   0.22   0.16
  40   7     0.10   0.03   0.02    -0.14  -0.00  -0.08    -0.14   0.00  -0.09
  41   1     0.03   0.04  -0.02    -0.03  -0.04  -0.03    -0.07   0.02   0.04
  42   1     0.05   0.04   0.05    -0.05   0.03  -0.01    -0.07  -0.01  -0.06
  43   7    -0.06  -0.20   0.07    -0.06   0.22  -0.04     0.08   0.03  -0.33
  44   1    -0.00  -0.05   0.05    -0.04   0.09   0.02     0.01   0.01  -0.10
  45   1    -0.04  -0.08   0.02    -0.01   0.04  -0.02     0.04   0.03  -0.09
  46   6     0.14  -0.01  -0.11    -0.03   0.07  -0.02     0.03  -0.04  -0.02
  47   8     0.30  -0.01  -0.06    -0.09   0.15  -0.15     0.05  -0.08   0.04
  48   7     0.12  -0.08  -0.17    -0.01  -0.03  -0.01     0.03  -0.00  -0.01
  49   1     0.06  -0.03  -0.04    -0.00  -0.01  -0.03     0.00   0.00   0.00
  50   1     0.00  -0.03  -0.06     0.01  -0.02   0.03    -0.01   0.01  -0.03
  51   7     0.02   0.03  -0.15     0.00   0.08   0.12    -0.02  -0.04  -0.11
  52   1    -0.02   0.00  -0.05     0.00   0.01   0.05     0.01  -0.01  -0.02
  53   1     0.02   0.02  -0.03    -0.01   0.04   0.02     0.02  -0.02  -0.01
                     19                     20                     21
                        a                      a                      a 
 Frequencies --   130.6013               138.8423               148.6831
 Red. masses --    13.3405                12.6066                13.4309
 Frc consts  --     0.0000                 0.0000                 0.0000
 IR Inten    --     5.2963                18.6482                 1.0525
 Raman Activ --     0.0000                 0.0000                 0.0000
 Depolar     --     0.0000                 0.0000                 0.0000
 Atom AN      X      Y      Z        X      Y      Z        X      Y      Z
   1   8     0.00   0.03  -0.12    -0.04  -0.04   0.11    -0.02   0.08  -0.05
   2   6     0.01   0.07  -0.08    -0.00   0.05  -0.05    -0.01   0.07  -0.05
   3   1    -0.00   0.03  -0.04    -0.01   0.02  -0.02    -0.01   0.02  -0.01
   4   1     0.01   0.04  -0.01     0.03   0.01  -0.02    -0.00   0.02  -0.02
   5   6     0.01  -0.01  -0.05    -0.09   0.16  -0.13    -0.01   0.09  -0.05
   6   1     0.00  -0.00  -0.01    -0.02   0.07  -0.07    -0.00   0.03  -0.01
   7   1     0.00  -0.02  -0.03    -0.06   0.05  -0.03    -0.00   0.03  -0.01
   8   7    -0.01  -0.04   0.04    -0.03   0.15  -0.15     0.00   0.10  -0.07
   9   6    -0.02  -0.11   0.06    -0.05   0.19  -0.18    -0.02   0.11  -0.09
  10   1    -0.01  -0.03   0.02    -0.01   0.06  -0.06    -0.00   0.03  -0.03
  11   1     0.01  -0.04   0.01    -0.03   0.06  -0.05    -0.01   0.03  -0.02
  12   1    -0.01  -0.04   0.03    -0.01   0.05  -0.05    -0.01   0.03  -0.03
  13   6    -0.01  -0.06   0.01    -0.07   0.06  -0.06    -0.02   0.07  -0.01
  14   1    -0.00  -0.02   0.02    -0.01   0.01  -0.01    -0.01   0.02   0.00
  15   1     0.00  -0.03  -0.01    -0.04   0.02  -0.02    -0.02   0.02  -0.00
  16   1    -0.00  -0.01  -0.00    -0.01   0.01  -0.01     0.00   0.02   0.00
  17   6    -0.04   0.04   0.11     0.11   0.12  -0.16     0.07   0.08  -0.07
  18   1    -0.01   0.00   0.05     0.05   0.03  -0.05     0.03   0.02  -0.02
  19   1    -0.01   0.03   0.03     0.04   0.01  -0.03     0.03   0.01  -0.01
  20   1    -0.01   0.02   0.04     0.04   0.06  -0.06     0.03   0.03  -0.03
  21   1     0.01   0.01  -0.02    -0.03  -0.02   0.02     0.00   0.03  -0.01
  22   6    -0.04  -0.12   0.06     0.04  -0.10   0.03    -0.13   0.12  -0.04
  23   8     0.03  -0.28   0.19     0.10  -0.19   0.04    -0.23   0.27  -0.03
  24   7     0.08   0.05   0.00     0.10  -0.01   0.03    -0.23  -0.06  -0.07
  25   1     0.06   0.02   0.02     0.05  -0.00   0.02    -0.11   0.00   0.01
  26   1     0.00   0.05  -0.02     0.01   0.02   0.01    -0.05  -0.04   0.02
  27   7    -0.22  -0.13  -0.01    -0.05  -0.09   0.03     0.02   0.07  -0.08
  28   1    -0.07  -0.02  -0.02    -0.02  -0.01  -0.00     0.02  -0.01  -0.02
  29   1    -0.07  -0.04   0.01    -0.02  -0.04  -0.00     0.01   0.05   0.00
  30   6    -0.04   0.00  -0.09    -0.06   0.04  -0.05     0.06  -0.08   0.05
  31   8    -0.06   0.25  -0.04    -0.12  -0.06  -0.19     0.13   0.22   0.29
  32   7     0.06  -0.16  -0.23    -0.02   0.09  -0.00     0.05  -0.28  -0.13
  33   1     0.03  -0.01  -0.04    -0.01   0.02  -0.01     0.03  -0.05  -0.02
  34   1     0.03  -0.04  -0.03     0.00   0.03   0.02     0.02  -0.07  -0.03
  35   7    -0.14  -0.15  -0.04    -0.06   0.12   0.06    -0.01  -0.28  -0.06
  36   1    -0.02  -0.07   0.00    -0.02   0.03   0.02     0.01  -0.10  -0.02
  37   1    -0.07  -0.03  -0.00    -0.02   0.03   0.02    -0.01  -0.06  -0.00
  38   6    -0.01   0.16   0.03     0.08  -0.10   0.18     0.04  -0.13   0.08
  39   8    -0.01   0.22   0.07     0.27  -0.26   0.28     0.08  -0.14   0.14
  40   7     0.03  -0.02  -0.15    -0.19  -0.26   0.18    -0.06  -0.09   0.16
  41   1     0.02  -0.03  -0.06    -0.05  -0.13   0.08    -0.03  -0.01   0.08
  42   1     0.02  -0.02  -0.04    -0.09  -0.03   0.03    -0.03  -0.02   0.03
  43   7    -0.04   0.32   0.15     0.09   0.17   0.12     0.07  -0.20  -0.05
  44   1    -0.01   0.08   0.04    -0.02   0.07   0.02     0.02  -0.06  -0.03
  45   1    -0.02   0.07   0.04     0.05   0.04   0.02     0.03  -0.03  -0.01
  46   6     0.11  -0.00   0.04     0.01  -0.02  -0.02     0.06   0.00   0.05
  47   8     0.37   0.02   0.15    -0.01  -0.05   0.00     0.24   0.02   0.12
  48   7    -0.03  -0.09  -0.12     0.02   0.02  -0.01    -0.05  -0.06  -0.07
  49   1     0.05  -0.05  -0.01     0.01   0.01   0.01     0.04  -0.04   0.00
  50   1    -0.03  -0.04  -0.03     0.01   0.01  -0.00    -0.02  -0.03  -0.00
  51   7    -0.01   0.04   0.04     0.01  -0.03  -0.06    -0.01   0.03   0.07
  52   1    -0.08   0.02  -0.04     0.01  -0.01  -0.02    -0.06   0.02  -0.02
  53   1    -0.01   0.03   0.01     0.01  -0.01  -0.01    -0.01   0.02   0.01
                     22                     23                     24
                        a                      a                      a 
 Frequencies --   167.7032               177.4446               185.0369
 Red. masses --    12.9388                11.5760                11.7101
 Frc consts  --     0.0000                 0.0000                 0.0000
 IR Inten    --    18.1834                 4.6289                22.1286
 Raman Activ --     0.0000                 0.0000                 0.0000
 Depolar     --     0.0000                 0.0000                 0.0000
 Atom AN      X      Y      Z        X      Y      Z        X      Y      Z
   1   8    -0.00  -0.01   0.02     0.06   0.04   0.45     0.04   0.14   0.26
   2   6    -0.00  -0.02   0.01     0.06  -0.11   0.07     0.02  -0.08   0.04
   3   1     0.00  -0.01   0.01     0.06  -0.06   0.03     0.05  -0.05   0.03
   4   1    -0.00  -0.01  -0.00     0.04  -0.07  -0.01     0.00  -0.05  -0.02
   5   6    -0.01   0.00  -0.00    -0.22   0.04  -0.13    -0.16   0.02  -0.09
   6   1    -0.00   0.00  -0.00    -0.05   0.08  -0.12    -0.03   0.05  -0.08
   7   1    -0.01   0.00   0.00    -0.16   0.01  -0.02    -0.11   0.00  -0.01
   8   7    -0.00   0.00  -0.02    -0.05  -0.06  -0.08    -0.03  -0.06  -0.05
   9   6    -0.00   0.00  -0.01     0.13  -0.02   0.06     0.09  -0.03   0.06
  10   1     0.00   0.01  -0.00     0.02  -0.00   0.06     0.01  -0.01   0.05
  11   1    -0.00  -0.00  -0.01     0.07  -0.00   0.02     0.05  -0.00   0.02
  12   1     0.00  -0.00   0.00     0.07  -0.01  -0.00     0.04  -0.00  -0.00
  13   6    -0.01   0.00  -0.01    -0.00  -0.24  -0.20    -0.00  -0.19  -0.14
  14   1    -0.00   0.00  -0.00     0.01  -0.10  -0.00     0.00  -0.08   0.01
  15   1    -0.00   0.00  -0.00     0.00  -0.12  -0.10     0.01  -0.10  -0.08
  16   1    -0.00  -0.00  -0.00    -0.02  -0.03  -0.09    -0.01  -0.02  -0.07
  17   6    -0.00  -0.01  -0.03    -0.05   0.00  -0.01    -0.03  -0.01   0.01
  18   1    -0.00  -0.00  -0.01     0.08  -0.02   0.00     0.07  -0.02   0.00
  19   1    -0.00  -0.00  -0.01    -0.07  -0.03  -0.06    -0.06  -0.04  -0.05
  20   1    -0.00  -0.00  -0.01    -0.04   0.07   0.06    -0.04   0.05   0.06
  21   1    -0.00  -0.00   0.01     0.01  -0.01   0.09     0.03   0.03   0.05
  22   6     0.02  -0.08   0.13    -0.11   0.05  -0.04     0.15  -0.03   0.05
  23   8     0.09  -0.21   0.31    -0.07  -0.07   0.02     0.08   0.16  -0.04
  24   7     0.21   0.08  -0.01    -0.03   0.15  -0.11     0.01  -0.24   0.14
  25   1     0.11   0.04   0.04     0.02   0.05  -0.01    -0.06  -0.06   0.04
  26   1     0.03   0.07  -0.03    -0.03   0.08  -0.03     0.03  -0.11   0.07
  27   7    -0.15  -0.10   0.04    -0.24   0.05  -0.05     0.37  -0.05   0.06
  28   1    -0.05  -0.01  -0.01    -0.06   0.02  -0.03     0.11  -0.03   0.04
  29   1    -0.05  -0.03   0.03    -0.07   0.01  -0.02     0.11   0.00   0.02
  30   6     0.02   0.17   0.02     0.15  -0.07   0.02    -0.19   0.09  -0.05
  31   8     0.05   0.38   0.14     0.19  -0.02   0.06    -0.23   0.12  -0.06
  32   7     0.07   0.19   0.04     0.12  -0.10  -0.01    -0.12   0.06  -0.07
  33   1     0.02   0.06   0.02     0.02  -0.04  -0.00    -0.01   0.04  -0.02
  34   1     0.02   0.02  -0.01     0.02  -0.02  -0.02    -0.02   0.01   0.00
  35   7    -0.07  -0.03  -0.13     0.20  -0.09  -0.04    -0.29   0.03   0.04
  36   1    -0.00  -0.03  -0.03     0.04   0.01   0.02    -0.06  -0.02   0.02
  37   1    -0.03  -0.01  -0.03     0.05  -0.02  -0.01    -0.11   0.00   0.00
  38   6    -0.02  -0.09  -0.13     0.01   0.04   0.03    -0.00   0.01  -0.01
  39   8     0.02  -0.01   0.00     0.02   0.05   0.05    -0.03   0.07   0.03
  40   7    -0.14   0.03   0.02     0.01  -0.01  -0.01     0.03  -0.00  -0.02
  41   1    -0.07   0.06   0.07     0.00  -0.01  -0.01    -0.00   0.04   0.02
  42   1    -0.06  -0.00  -0.03     0.00  -0.01  -0.01     0.01   0.02   0.01
  43   7     0.05  -0.34  -0.43     0.00   0.09   0.05     0.02  -0.10  -0.08
  44   1     0.03  -0.12  -0.14     0.00   0.02   0.01     0.00  -0.03  -0.03
  45   1     0.04  -0.10  -0.13     0.00   0.02   0.01     0.00  -0.00  -0.01
  46   6    -0.03   0.01   0.01    -0.04   0.07  -0.04     0.07   0.05  -0.03
  47   8    -0.08   0.01  -0.01    -0.15   0.13  -0.16     0.16   0.09  -0.04
  48   7    -0.03   0.03   0.03     0.02   0.03   0.02     0.01  -0.07  -0.11
  49   1    -0.01   0.01   0.01    -0.02   0.01  -0.02     0.07  -0.04  -0.01
  50   1     0.01   0.01   0.02     0.01   0.00   0.02     0.03  -0.05   0.02
  51   7     0.00  -0.00   0.03    -0.03   0.09   0.06     0.02   0.08   0.06
  52   1     0.01   0.00   0.01     0.03   0.00   0.07    -0.06   0.02  -0.02
  53   1    -0.01  -0.00  -0.00     0.00   0.04   0.03    -0.03   0.05  -0.01
                     25                     26                     27
                        a                      a                      a 
 Frequencies --   192.2516               220.3821               228.0761
 Red. masses --    12.2409                 3.2096                 5.4419
 Frc consts  --     0.0000                 0.0000                 0.0000
 IR Inten    --    46.6049               173.5043                14.8092
 Raman Activ --     0.0000                 0.0000                 0.0000
 Depolar     --     0.0000                 0.0000                 0.0000
 Atom AN      X      Y      Z        X      Y      Z        X      Y      Z
   1   8     0.01   0.09  -0.00     0.00   0.09  -0.02    -0.02  -0.33   0.05
   2   6    -0.00  -0.00  -0.01    -0.01   0.01  -0.00     0.03  -0.04   0.03
   3   1     0.01  -0.01   0.01     0.01  -0.00   0.00    -0.04   0.02  -0.01
   4   1    -0.01  -0.01  -0.01    -0.02   0.00  -0.00     0.05   0.01   0.02
   5   6    -0.03   0.01  -0.03    -0.01  -0.01   0.01     0.02   0.02   0.01
   6   1    -0.01   0.01  -0.02    -0.00  -0.00   0.00     0.01   0.01  -0.01
   7   1    -0.02   0.00  -0.01     0.00  -0.00  -0.00    -0.00   0.01   0.01
   8   7    -0.02   0.00  -0.01    -0.00  -0.01   0.01    -0.01   0.03   0.02
   9   6     0.00  -0.00   0.00     0.01   0.00   0.01    -0.04   0.02  -0.01
  10   1    -0.00  -0.00   0.01     0.00   0.01   0.00    -0.00   0.02  -0.01
  11   1     0.01   0.00   0.00    -0.00  -0.00   0.00    -0.03  -0.01  -0.01
  12   1     0.00   0.00  -0.00     0.01  -0.00   0.01    -0.01  -0.01   0.02
  13   6    -0.01  -0.03  -0.02    -0.00  -0.00   0.00    -0.02   0.02   0.02
  14   1    -0.00  -0.01   0.01    -0.00  -0.00   0.00     0.02   0.01  -0.04
  15   1    -0.00  -0.02  -0.02     0.00  -0.00   0.00    -0.02   0.04   0.03
  16   1    -0.00   0.00  -0.01     0.00   0.00  -0.00    -0.02  -0.05   0.02
  17   6    -0.00   0.02   0.01    -0.01  -0.02  -0.00    -0.01   0.05   0.04
  18   1     0.02  -0.00   0.00    -0.01  -0.00  -0.00    -0.04   0.02   0.02
  19   1    -0.02  -0.01  -0.01     0.00  -0.00   0.00     0.02   0.04   0.03
  20   1    -0.01   0.02   0.02    -0.00  -0.02  -0.01     0.01  -0.00  -0.01
  21   1     0.02   0.02  -0.01     0.01   0.02  -0.01    -0.04  -0.09   0.02
  22   6    -0.01   0.01  -0.03     0.01   0.02   0.02     0.02   0.00   0.01
  23   8     0.03  -0.06   0.01     0.06  -0.07  -0.09     0.02   0.01  -0.01
  24   7     0.07   0.16   0.00     0.08  -0.10  -0.29     0.01  -0.04  -0.03
  25   1     0.09  -0.01  -0.12    -0.10   0.23   0.46    -0.02   0.03   0.08
  26   1     0.04  -0.00  -0.16    -0.14   0.35   0.61    -0.02   0.04   0.10
  27   7    -0.11   0.02  -0.03    -0.01   0.01  -0.00     0.04  -0.00  -0.00
  28   1    -0.05   0.03   0.02     0.03  -0.04  -0.11     0.02  -0.01  -0.02
  29   1    -0.05  -0.00   0.02     0.01  -0.03  -0.06     0.01  -0.00  -0.00
  30   6    -0.13  -0.07   0.13    -0.02  -0.01   0.04    -0.07  -0.01  -0.01
  31   8    -0.00  -0.34   0.32     0.00  -0.06   0.09    -0.04   0.03   0.08
  32   7    -0.44   0.06   0.19    -0.09   0.02   0.06    -0.08  -0.01   0.00
  33   1    -0.13   0.02   0.10    -0.03  -0.00   0.01    -0.02  -0.00  -0.01
  34   1    -0.14   0.05   0.03    -0.03   0.01   0.00    -0.03  -0.03  -0.03
  35   7     0.09   0.16  -0.21     0.02   0.04  -0.05    -0.05  -0.04  -0.06
  36   1    -0.02   0.10  -0.12    -0.00   0.01  -0.05    -0.03   0.05   0.06
  37   1     0.13   0.01  -0.07     0.03   0.00  -0.02    -0.03  -0.01  -0.02
  38   6     0.01  -0.00  -0.02     0.00   0.00  -0.01     0.00  -0.00  -0.00
  39   8     0.03   0.00   0.00    -0.00  -0.01  -0.03     0.00  -0.00  -0.01
  40   7    -0.05   0.03   0.01    -0.01   0.03   0.00     0.00  -0.01  -0.01
  41   1    -0.01  -0.01   0.01     0.01  -0.02  -0.01    -0.00   0.01   0.01
  42   1    -0.02  -0.02  -0.02     0.00  -0.02  -0.01    -0.00   0.02   0.01
  43   7     0.02  -0.03  -0.09    -0.01   0.03   0.01     0.00  -0.01  -0.01
  44   1     0.00  -0.01  -0.03     0.01  -0.01  -0.02     0.00  -0.00  -0.00
  45   1     0.01   0.01  -0.02     0.01   0.00  -0.00     0.00  -0.00  -0.00
  46   6     0.14   0.01  -0.01     0.01  -0.01   0.01     0.07   0.07  -0.06
  47   8     0.34   0.02   0.06     0.03  -0.02   0.03     0.12   0.13  -0.10
  48   7     0.04  -0.12  -0.15    -0.03  -0.01  -0.02     0.22  -0.09   0.06
  49   1     0.09  -0.06  -0.02     0.04  -0.02   0.04    -0.22   0.04  -0.29
  50   1     0.00  -0.06  -0.01     0.04  -0.02   0.04    -0.33   0.04  -0.33
  51   7     0.02   0.05  -0.01     0.03  -0.02   0.01    -0.14   0.17  -0.04
  52   1    -0.06   0.02  -0.04    -0.06   0.02  -0.06     0.27  -0.08   0.31
  53   1     0.00   0.03   0.00    -0.03   0.00  -0.04     0.19   0.02   0.21
                     28                     29                     30
                        a                      a                      a 
 Frequencies --   241.4865               251.0901               297.2411
 Red. masses --     6.0464                 7.5126                 4.3162
 Frc consts  --     0.0000                 0.0000                 0.0000
 IR Inten    --     5.4288                 9.4530                 0.1296
 Raman Activ --     0.0000                 0.0000                 0.0000
 Depolar     --     0.0000                 0.0000                 0.0000
 Atom AN      X      Y      Z        X      Y      Z        X      Y      Z
   1   8    -0.07  -0.42   0.16     0.01   0.46   0.11     0.22   0.05  -0.21
   2   6     0.04   0.07   0.01    -0.02   0.23  -0.06     0.11  -0.14   0.05
   3   1    -0.05   0.09  -0.09     0.05   0.06  -0.08     0.06  -0.08   0.09
   4   1     0.11   0.09   0.05    -0.00   0.10   0.01    -0.03  -0.09  -0.02
   5   6     0.01  -0.01   0.02    -0.10  -0.04  -0.02     0.05  -0.02   0.02
   6   1    -0.00  -0.01   0.02    -0.03  -0.01   0.01     0.02  -0.03  -0.02
   7   1     0.02  -0.01  -0.00    -0.01  -0.03  -0.03     0.01   0.01   0.02
   8   7    -0.01  -0.01   0.02    -0.01  -0.09  -0.02    -0.10   0.04   0.01
   9   6     0.00   0.04   0.02     0.13   0.04   0.06    -0.05   0.17   0.01
  10   1     0.03   0.16  -0.02     0.06   0.18   0.02     0.05   0.40  -0.05
  11   1    -0.11  -0.05  -0.06    -0.06  -0.04  -0.04    -0.27  -0.07  -0.14
  12   1     0.09  -0.07   0.10     0.16  -0.07   0.09     0.20  -0.13   0.20
  13   6    -0.00  -0.05  -0.02     0.01  -0.14  -0.07    -0.09  -0.14  -0.04
  14   1     0.10   0.02  -0.17     0.05  -0.03  -0.09     0.13  -0.01  -0.22
  15   1    -0.04   0.12   0.11    -0.02   0.01   0.03    -0.10   0.12   0.13
  16   1    -0.06  -0.20   0.03    -0.02  -0.12  -0.01    -0.11  -0.28   0.03
  17   6    -0.05  -0.03  -0.02    -0.06  -0.18  -0.13    -0.14   0.12   0.10
  18   1    -0.29   0.03   0.01    -0.31   0.00  -0.04     0.16  -0.01   0.04
  19   1     0.15   0.13   0.14     0.16   0.08   0.13    -0.18  -0.05  -0.10
  20   1     0.08  -0.20  -0.18     0.08  -0.27  -0.23    -0.12   0.17   0.18
  21   1    -0.09  -0.14  -0.01     0.01   0.12   0.02     0.10   0.02  -0.04
  22   6     0.00   0.01  -0.00    -0.00  -0.00   0.00    -0.00   0.00  -0.00
  23   8    -0.00   0.02  -0.01    -0.00   0.00   0.01    -0.00   0.01  -0.00
  24   7    -0.01  -0.01   0.00     0.00   0.01   0.01    -0.01  -0.00   0.00
  25   1    -0.00  -0.00  -0.00     0.01  -0.01  -0.02    -0.00  -0.00  -0.00
  26   1     0.00  -0.01  -0.00     0.01  -0.02  -0.03     0.00  -0.01  -0.01
  27   7     0.02   0.01  -0.00     0.00  -0.00  -0.00     0.00   0.00  -0.00
  28   1     0.00   0.00   0.00    -0.00   0.00   0.01     0.00   0.00   0.00
  29   1     0.00   0.00   0.00    -0.00   0.00   0.00     0.00   0.00  -0.00
  30   6     0.00   0.00   0.01    -0.01  -0.00  -0.01     0.00  -0.00  -0.00
  31   8     0.01  -0.01   0.01    -0.01   0.00  -0.01     0.00   0.00  -0.01
  32   7    -0.02  -0.01  -0.01     0.01   0.02   0.02     0.01  -0.00  -0.00
  33   1    -0.00   0.00   0.01    -0.00  -0.00  -0.01     0.00  -0.00  -0.00
  34   1    -0.00   0.02   0.01    -0.00  -0.01  -0.01     0.00   0.00   0.01
  35   7    -0.00  -0.00   0.01    -0.00   0.00  -0.01     0.00   0.00   0.00
  36   1     0.00  -0.00   0.02    -0.00   0.00  -0.02     0.00  -0.01  -0.01
  37   1    -0.01  -0.02  -0.01     0.01   0.01   0.01     0.00   0.00   0.00
  38   6     0.01   0.00  -0.00     0.01   0.00   0.00     0.02  -0.00   0.00
  39   8     0.01  -0.00  -0.00     0.01   0.01   0.01     0.02  -0.00   0.01
  40   7     0.00  -0.00  -0.00    -0.00  -0.00   0.00    -0.01  -0.01   0.01
  41   1    -0.00   0.00   0.00    -0.00  -0.00   0.00    -0.00  -0.01   0.01
  42   1    -0.00   0.01   0.00    -0.00  -0.00  -0.00    -0.01  -0.00  -0.00
  43   7     0.01   0.00  -0.01     0.01   0.01  -0.00     0.02   0.01  -0.00
  44   1     0.00   0.01   0.00     0.00   0.00  -0.00     0.00   0.01   0.00
  45   1     0.00   0.00  -0.00     0.00  -0.00  -0.00     0.00  -0.01  -0.01
  46   6     0.03   0.10  -0.06    -0.01  -0.08   0.06    -0.02  -0.02   0.02
  47   8     0.02   0.17  -0.14     0.02  -0.13   0.13    -0.02  -0.03   0.03
  48   7    -0.02   0.00  -0.14    -0.00  -0.01   0.09    -0.02   0.01   0.03
  49   1     0.15  -0.04   0.08    -0.09   0.02  -0.04    -0.01   0.01   0.01
  50   1     0.19  -0.06   0.18    -0.13   0.04  -0.12    -0.01   0.01  -0.00
  51   7     0.03   0.15   0.14    -0.02  -0.11  -0.11     0.01  -0.04  -0.02
  52   1    -0.18   0.06  -0.08     0.13  -0.05   0.06     0.01  -0.00  -0.02
  53   1    -0.11   0.11  -0.06     0.09  -0.09   0.05     0.00  -0.03  -0.01
                     31                     32                     33
                        a                      a                      a 
 Frequencies --   312.1638               333.0715               342.9019
 Red. masses --     7.4070                 3.7433                 5.2562
 Frc consts  --     0.0000                 0.0000                 0.0000
 IR Inten    --     1.5209                 4.7273                19.5302
 Raman Activ --     0.0000                 0.0000                 0.0000
 Depolar     --     0.0000                 0.0000                 0.0000
 Atom AN      X      Y      Z        X      Y      Z        X      Y      Z
   1   8     0.19  -0.12  -0.19     0.11  -0.14  -0.21    -0.12  -0.07   0.19
   2   6     0.19   0.20  -0.02     0.06  -0.19   0.03    -0.00   0.27  -0.16
   3   1     0.02   0.11  -0.08     0.01  -0.08   0.09    -0.04   0.15  -0.18
   4   1     0.09   0.11   0.04    -0.02  -0.10  -0.04     0.09   0.16   0.02
   5   6     0.03  -0.01   0.03    -0.00   0.07  -0.05     0.04  -0.07  -0.03
   6   1     0.01  -0.03  -0.03     0.01   0.06  -0.07    -0.00  -0.04   0.06
   7   1    -0.00  -0.02  -0.00    -0.08   0.02   0.00     0.08  -0.06  -0.06
   8   7    -0.12  -0.00   0.10    -0.01   0.06   0.01     0.04  -0.10   0.02
   9   6     0.06   0.42   0.11     0.09   0.15   0.08     0.09   0.02   0.01
  10   1    -0.04  -0.11   0.10     0.06   0.26   0.02     0.06   0.22  -0.02
  11   1     0.18   0.29   0.22    -0.11  -0.03  -0.06    -0.12  -0.07  -0.09
  12   1    -0.06   0.28  -0.23     0.17  -0.06   0.14     0.16  -0.10   0.12
  13   6    -0.13  -0.27   0.06    -0.09  -0.02   0.14     0.00   0.14   0.16
  14   1     0.03  -0.11   0.03    -0.20  -0.10   0.42    -0.11   0.04   0.14
  15   1    -0.08  -0.09   0.01     0.00  -0.29  -0.21     0.02  -0.02  -0.01
  16   1    -0.06  -0.12   0.01     0.09   0.36  -0.02     0.07   0.17   0.06
  17   6    -0.20  -0.16  -0.06    -0.13   0.02  -0.04    -0.08  -0.27  -0.15
  18   1    -0.02  -0.02  -0.08    -0.21   0.04  -0.02     0.24  -0.09  -0.12
  19   1    -0.10  -0.08  -0.05     0.05   0.09   0.06    -0.20  -0.23  -0.20
  20   1    -0.09  -0.06   0.03     0.01  -0.14  -0.10    -0.13   0.05   0.16
  21   1     0.01  -0.04  -0.06     0.06  -0.00  -0.01    -0.11  -0.04   0.02
  22   6     0.00  -0.00   0.00    -0.00   0.00  -0.00     0.00   0.00  -0.00
  23   8     0.00  -0.00   0.01    -0.00   0.00  -0.00     0.00   0.00  -0.00
  24   7     0.01   0.00  -0.00    -0.01  -0.00   0.00    -0.00  -0.00  -0.00
  25   1     0.00   0.00   0.00    -0.00  -0.00  -0.00    -0.00   0.00   0.00
  26   1     0.00   0.00  -0.00     0.00  -0.01  -0.00    -0.00   0.00   0.00
  27   7    -0.01  -0.00   0.00     0.00   0.00  -0.00     0.00   0.00  -0.00
  28   1    -0.00  -0.00  -0.00    -0.00   0.00   0.00     0.00  -0.00  -0.00
  29   1    -0.00  -0.00   0.00    -0.00   0.00  -0.00     0.00   0.00   0.00
  30   6     0.00   0.00   0.00     0.00  -0.00   0.00    -0.01  -0.00  -0.01
  31   8     0.00   0.00  -0.00     0.00  -0.00  -0.00    -0.00   0.00   0.01
  32   7     0.00   0.00   0.00    -0.00  -0.00  -0.01    -0.00   0.01   0.02
  33   1     0.00   0.00   0.00    -0.00  -0.00   0.00    -0.01  -0.01  -0.02
  34   1    -0.00   0.00  -0.00     0.00   0.01   0.01    -0.01  -0.03  -0.03
  35   7     0.00  -0.00   0.00    -0.00   0.00   0.00     0.01  -0.01  -0.01
  36   1     0.00   0.00   0.00     0.00  -0.01  -0.01    -0.01   0.03   0.04
  37   1    -0.00  -0.00   0.00     0.00  -0.00  -0.00    -0.01   0.01   0.00
  38   6    -0.00  -0.02  -0.00     0.01   0.00   0.01     0.00   0.01   0.00
  39   8    -0.00  -0.03  -0.02     0.01   0.02   0.02    -0.00   0.01   0.01
  40   7    -0.01  -0.01   0.01    -0.00  -0.00   0.01     0.01  -0.04  -0.02
  41   1    -0.00  -0.00   0.00    -0.00  -0.01   0.01    -0.01   0.04   0.02
  42   1    -0.00   0.01   0.01    -0.00  -0.02  -0.01    -0.01   0.06   0.04
  43   7    -0.00  -0.01   0.01     0.01   0.00  -0.00     0.00   0.01   0.00
  44   1     0.00  -0.01  -0.01     0.00   0.00  -0.00     0.00  -0.00  -0.00
  45   1     0.00   0.01   0.01     0.00  -0.00  -0.00     0.00  -0.01  -0.00
  46   6     0.00  -0.00   0.00    -0.02   0.01  -0.02     0.05  -0.00   0.01
  47   8     0.00  -0.00   0.01    -0.01   0.02  -0.02     0.03  -0.00  -0.00
  48   7    -0.00   0.01   0.00     0.03  -0.01   0.02    -0.04   0.01  -0.08
  49   1     0.00   0.00   0.01    -0.02   0.00  -0.02     0.05  -0.01   0.04
  50   1     0.00   0.00   0.00    -0.02   0.00  -0.02     0.10  -0.02   0.08
  51   7    -0.00   0.00  -0.00     0.03   0.00   0.03    -0.07   0.05  -0.04
  52   1    -0.00   0.00  -0.00    -0.06   0.02  -0.05     0.10  -0.03   0.11
  53   1    -0.00   0.00   0.00    -0.03   0.01  -0.02     0.05   0.01   0.06
                     34                     35                     36
                        a                      a                      a 
 Frequencies --   353.2402               368.0754               372.7273
 Red. masses --     4.1894                 5.4972                 4.6306
 Frc consts  --     0.0000                 0.0000                 0.0000
 IR Inten    --   338.6692               122.2395               155.9877
 Raman Activ --     0.0000                 0.0000                 0.0000
 Depolar     --     0.0000                 0.0000                 0.0000
 Atom AN      X      Y      Z        X      Y      Z        X      Y      Z
   1   8    -0.05  -0.02   0.08     0.03  -0.03  -0.08     0.02  -0.01  -0.06
   2   6    -0.00   0.11  -0.06     0.02  -0.13  -0.10     0.01  -0.10  -0.09
   3   1    -0.02   0.05  -0.06     0.01  -0.07   0.06     0.01  -0.06   0.05
   4   1     0.04   0.06   0.00    -0.01  -0.11  -0.10    -0.01  -0.09  -0.08
   5   6    -0.01  -0.00  -0.03    -0.09   0.17  -0.22    -0.08   0.13  -0.18
   6   1    -0.00  -0.00   0.01    -0.01   0.14  -0.14    -0.01   0.11  -0.12
   7   1     0.01  -0.01  -0.02    -0.14   0.03  -0.06    -0.12   0.02  -0.06
   8   7     0.01  -0.03  -0.00    -0.00   0.05   0.02     0.00   0.03   0.03
   9   6     0.03  -0.03   0.01     0.15  -0.09   0.22     0.11  -0.08   0.18
  10   1     0.01   0.02   0.01     0.00  -0.07   0.14     0.00  -0.06   0.11
  11   1    -0.01  -0.02  -0.01     0.13  -0.04   0.06     0.10  -0.02   0.05
  12   1     0.03  -0.03   0.02     0.04  -0.02   0.04     0.03  -0.01   0.03
  13   6    -0.00   0.05   0.05    -0.09   0.16   0.25    -0.06   0.14   0.20
  14   1    -0.01   0.03  -0.02    -0.01   0.10  -0.07     0.00   0.09  -0.07
  15   1    -0.01   0.04   0.04    -0.09   0.17   0.18    -0.06   0.15   0.15
  16   1     0.01  -0.01   0.04    -0.01  -0.10   0.16    -0.01  -0.08   0.13
  17   6    -0.01  -0.10  -0.07    -0.00  -0.10  -0.12    -0.00  -0.08  -0.07
  18   1     0.09  -0.03  -0.05    -0.00   0.00  -0.09    -0.00  -0.00  -0.07
  19   1    -0.06  -0.09  -0.07    -0.00  -0.08  -0.02     0.00  -0.06  -0.01
  20   1    -0.04   0.02   0.04     0.00  -0.06  -0.04     0.00  -0.05  -0.03
  21   1    -0.03   0.00   0.04     0.02   0.00  -0.00     0.02   0.01   0.01
  22   6    -0.00   0.00   0.00     0.01   0.01   0.00    -0.00  -0.01  -0.01
  23   8    -0.00   0.00   0.01     0.00   0.01   0.01    -0.00  -0.01  -0.01
  24   7    -0.00   0.00   0.00    -0.00  -0.01   0.01    -0.00   0.01  -0.00
  25   1     0.00  -0.00  -0.01    -0.01  -0.00  -0.00     0.00   0.00   0.00
  26   1     0.00  -0.01  -0.02     0.00  -0.01  -0.00    -0.00   0.01   0.00
  27   7    -0.00  -0.00  -0.01     0.00   0.00  -0.00    -0.01   0.00   0.01
  28   1    -0.01   0.01   0.02    -0.00   0.00  -0.00     0.00  -0.01  -0.01
  29   1    -0.00   0.00   0.00    -0.00   0.00   0.00     0.00  -0.00  -0.01
  30   6     0.02   0.02   0.02    -0.01   0.00  -0.02     0.01  -0.01   0.02
  31   8     0.01  -0.02  -0.02    -0.00   0.00  -0.00     0.00   0.00   0.01
  32   7     0.00  -0.01  -0.03     0.01  -0.00  -0.01    -0.02  -0.00   0.01
  33   1     0.01   0.03   0.04     0.00   0.00  -0.01    -0.01  -0.00   0.01
  34   1     0.02   0.06   0.06     0.01  -0.01  -0.01    -0.00   0.01   0.02
  35   7    -0.02   0.03   0.04    -0.02   0.01   0.03     0.02  -0.02  -0.04
  36   1     0.03  -0.08  -0.09    -0.00   0.00   0.03    -0.00   0.01  -0.03
  37   1     0.01  -0.03  -0.02    -0.02  -0.03  -0.02     0.02   0.05   0.03
  38   6     0.01  -0.02  -0.00     0.00  -0.04  -0.01    -0.01   0.04   0.01
  39   8     0.01  -0.00   0.00     0.00  -0.02  -0.00    -0.01   0.02   0.00
  40   7    -0.03   0.11   0.06    -0.02   0.21   0.10     0.04  -0.26  -0.13
  41   1     0.03  -0.11  -0.06     0.06  -0.18  -0.10    -0.07   0.23   0.11
  42   1     0.03  -0.20  -0.13     0.07  -0.39  -0.24    -0.08   0.52   0.33
  43   7     0.01  -0.02  -0.01     0.00  -0.02  -0.01    -0.01   0.04  -0.00
  44   1    -0.01   0.01   0.01    -0.03   0.04   0.04     0.03  -0.04  -0.06
  45   1    -0.00   0.00   0.00    -0.00  -0.00   0.00     0.01   0.02  -0.00
  46   6    -0.10   0.04  -0.09     0.03  -0.00   0.03    -0.03  -0.00  -0.02
  47   8    -0.02   0.04  -0.04     0.00  -0.00   0.01    -0.01  -0.00  -0.00
  48   7     0.19  -0.07   0.19    -0.06   0.01  -0.06     0.04  -0.01   0.05
  49   1    -0.14   0.03  -0.16     0.04  -0.01   0.04    -0.03   0.01  -0.03
  50   1    -0.34   0.05  -0.31     0.09  -0.02   0.09    -0.07   0.02  -0.06
  51   7     0.20  -0.05   0.19    -0.06   0.02  -0.05     0.05  -0.03   0.03
  52   1    -0.38   0.11  -0.34     0.13  -0.04   0.12    -0.11   0.03  -0.10
  53   1    -0.16   0.05  -0.16     0.04  -0.01   0.04    -0.03   0.00  -0.03
                     37                     38                     39
                        a                      a                      a 
 Frequencies --   425.0818               440.2054               450.0590
 Red. masses --     8.7643                 2.8888                 5.4877
 Frc consts  --     0.0000                 0.0000                 0.0000
 IR Inten    --     0.3189               131.4912                84.6649
 Raman Activ --     0.0000                 0.0000                 0.0000
 Depolar     --     0.0000                 0.0000                 0.0000
 Atom AN      X      Y      Z        X      Y      Z        X      Y      Z
   1   8     0.15  -0.09  -0.15     0.00   0.00  -0.00    -0.01  -0.06   0.01
   2   6     0.12   0.10   0.10     0.00   0.01   0.01     0.01   0.01   0.02
   3   1     0.02   0.05  -0.01    -0.00   0.00   0.00    -0.01   0.01  -0.00
   4   1     0.04   0.06   0.05     0.00   0.00   0.00     0.02   0.01   0.01
   5   6    -0.11  -0.01   0.07     0.00   0.01   0.01     0.00   0.03   0.01
   6   1    -0.02  -0.03  -0.04     0.00   0.00   0.00     0.00   0.02  -0.01
   7   1    -0.05   0.00   0.03     0.01   0.00   0.00    -0.02   0.01   0.00
   8   7    -0.33   0.03   0.11    -0.00   0.01   0.00     0.02   0.01   0.02
   9   6    -0.15  -0.04   0.32    -0.01  -0.01   0.01    -0.02  -0.02  -0.01
  10   1    -0.06   0.05   0.15    -0.00   0.00   0.00    -0.00  -0.00  -0.01
  11   1    -0.02  -0.06   0.04    -0.00  -0.01  -0.00    -0.01  -0.01  -0.01
  12   1     0.02  -0.05   0.14    -0.00  -0.01   0.01    -0.01  -0.01   0.01
  13   6    -0.14   0.17  -0.33    -0.00  -0.01  -0.01     0.02  -0.01  -0.00
  14   1    -0.06   0.05  -0.08     0.00  -0.01   0.00     0.01  -0.01   0.00
  15   1     0.10   0.01  -0.12     0.00  -0.01  -0.01     0.01  -0.01  -0.00
  16   1    -0.09   0.13  -0.18    -0.00  -0.00  -0.01     0.00  -0.00  -0.01
  17   6     0.35  -0.17  -0.06     0.00  -0.01  -0.01    -0.01  -0.02  -0.01
  18   1     0.20  -0.05  -0.05     0.00  -0.00  -0.01     0.00  -0.00  -0.02
  19   1     0.16  -0.20   0.09     0.00  -0.01  -0.00    -0.01  -0.01  -0.01
  20   1     0.17   0.06  -0.13     0.00  -0.00  -0.00    -0.01  -0.01   0.00
  21   1     0.03  -0.02  -0.04    -0.00  -0.00  -0.00    -0.01  -0.01   0.01
  22   6    -0.00   0.00   0.00     0.07  -0.06  -0.12     0.00  -0.00  -0.00
  23   8    -0.00   0.00   0.00     0.03   0.02  -0.06     0.00  -0.00  -0.00
  24   7     0.00   0.00  -0.00    -0.03   0.04   0.17     0.00   0.00   0.01
  25   1     0.00   0.00   0.00     0.03  -0.07  -0.13     0.00  -0.00  -0.00
  26   1    -0.00   0.00  -0.00     0.00  -0.01   0.03     0.00  -0.01  -0.01
  27   7     0.01  -0.00  -0.00    -0.14   0.10   0.22    -0.01   0.00   0.01
  28   1    -0.00   0.00   0.01     0.27  -0.37  -0.77     0.01  -0.01  -0.02
  29   1     0.00   0.00   0.00     0.00   0.00  -0.04     0.00  -0.01  -0.01
  30   6    -0.00  -0.00  -0.00     0.01   0.04   0.03     0.04  -0.04  -0.00
  31   8    -0.00   0.00  -0.00     0.02  -0.00   0.02    -0.00   0.01  -0.07
  32   7     0.00   0.00   0.01    -0.04  -0.02  -0.05     0.02   0.02   0.03
  33   1    -0.00  -0.01  -0.01     0.03   0.07   0.08    -0.02  -0.02   0.02
  34   1    -0.00  -0.00  -0.00     0.00   0.03   0.04     0.00   0.08   0.04
  35   7     0.00  -0.00  -0.00    -0.01   0.00   0.02    -0.04  -0.05   0.05
  36   1    -0.00   0.00  -0.00     0.01  -0.01   0.04     0.02  -0.19  -0.38
  37   1     0.00   0.00   0.00    -0.03  -0.05  -0.03     0.12   0.20   0.16
  38   6    -0.00   0.00  -0.00     0.01   0.00  -0.01     0.01   0.01  -0.01
  39   8    -0.00   0.00   0.01     0.01   0.01  -0.02     0.02   0.00  -0.00
  40   7     0.01   0.00  -0.01    -0.01   0.00   0.00    -0.03   0.02   0.01
  41   1     0.00   0.01  -0.00    -0.02   0.01   0.03     0.02  -0.07  -0.06
  42   1     0.00   0.00   0.00    -0.02  -0.01  -0.02    -0.01   0.04   0.02
  43   7    -0.01   0.00  -0.00     0.02  -0.02   0.00    -0.01  -0.01   0.03
  44   1    -0.00   0.00   0.01    -0.01   0.00  -0.01     0.04  -0.08  -0.08
  45   1    -0.00  -0.01  -0.00    -0.02   0.05   0.03    -0.00   0.04   0.02
  46   6     0.00  -0.00   0.00    -0.00  -0.00  -0.00    -0.08   0.20   0.13
  47   8     0.00  -0.00   0.00    -0.00  -0.01  -0.00    -0.09   0.23   0.12
  48   7    -0.00   0.01   0.00     0.00   0.00   0.00    -0.14  -0.28   0.00
  49   1    -0.00   0.00   0.00     0.00  -0.00   0.00     0.19  -0.18  -0.05
  50   1     0.00   0.00   0.00    -0.01   0.00  -0.01    -0.21  -0.19   0.04
  51   7    -0.00   0.00   0.00     0.00  -0.01  -0.00     0.19   0.06  -0.18
  52   1    -0.00   0.00  -0.00     0.00  -0.00   0.00     0.35   0.08   0.02
  53   1     0.00   0.00   0.00    -0.01   0.00  -0.01    -0.08  -0.15  -0.23
                     40                     41                     42
                        a                      a                      a 
 Frequencies --   454.8441               461.1400               465.6442
 Red. masses --     7.7244                 4.5994                 6.0931
 Frc consts  --     0.0000                 0.0000                 0.0000
 IR Inten    --     9.0436                27.2014                20.9630
 Raman Activ --     0.0000                 0.0000                 0.0000
 Depolar     --     0.0000                 0.0000                 0.0000
 Atom AN      X      Y      Z        X      Y      Z        X      Y      Z
   1   8    -0.03   0.02   0.10     0.01   0.01  -0.03    -0.00   0.00   0.01
   2   6    -0.03  -0.16  -0.20     0.01   0.02   0.02    -0.01   0.05   0.07
   3   1     0.04  -0.05  -0.12    -0.00  -0.00   0.03    -0.01   0.02   0.02
   4   1     0.00  -0.00  -0.02    -0.00  -0.01  -0.01    -0.01   0.02   0.03
   5   6    -0.01  -0.36  -0.09    -0.04   0.09  -0.02     0.09   0.03   0.09
   6   1    -0.03  -0.20   0.08     0.00   0.08  -0.06     0.01  -0.06   0.08
   7   1     0.14  -0.08  -0.03    -0.08   0.01  -0.01     0.10   0.03   0.04
   8   7    -0.17  -0.18  -0.18     0.05  -0.01   0.11    -0.02   0.14  -0.12
   9   6     0.25   0.19   0.06    -0.11  -0.01  -0.03     0.06  -0.12   0.04
  10   1     0.03   0.09   0.13    -0.01   0.01  -0.07    -0.01  -0.04   0.06
  11   1     0.11   0.11   0.08    -0.08  -0.00  -0.01     0.07  -0.08  -0.03
  12   1     0.19   0.07  -0.09    -0.05  -0.01   0.01     0.01  -0.06   0.06
  13   6    -0.23   0.18   0.02     0.12   0.00  -0.03    -0.13  -0.12   0.03
  14   1    -0.16   0.10  -0.02     0.04   0.00  -0.02    -0.00  -0.07   0.06
  15   1    -0.04   0.09   0.04     0.07  -0.01  -0.01    -0.11  -0.05  -0.01
  16   1     0.00   0.07   0.06     0.01   0.01  -0.04    -0.02  -0.05   0.03
  17   6     0.10   0.17   0.19    -0.03  -0.10   0.03     0.01   0.11  -0.18
  18   1     0.01  -0.01   0.19    -0.01  -0.01  -0.03     0.02   0.03  -0.06
  19   1     0.08   0.13   0.09    -0.02  -0.04   0.00    -0.00   0.00  -0.05
  20   1     0.07   0.14  -0.01    -0.02  -0.06   0.02    -0.00   0.04  -0.04
  21   1    -0.01   0.01   0.02     0.01   0.00  -0.01    -0.00  -0.01  -0.02
  22   6     0.00  -0.00   0.00     0.05   0.03   0.00    -0.01  -0.02   0.01
  23   8    -0.01   0.00  -0.00     0.06   0.00   0.02    -0.02   0.01  -0.01
  24   7     0.01   0.00   0.00    -0.01  -0.06   0.02     0.02   0.01   0.00
  25   1     0.01  -0.00  -0.00    -0.07   0.01   0.05     0.03   0.00   0.00
  26   1     0.00   0.00  -0.01     0.03  -0.09  -0.02    -0.00   0.02  -0.01
  27   7     0.00  -0.00   0.01    -0.07   0.03  -0.03    -0.00  -0.02   0.02
  28   1     0.00  -0.01  -0.01    -0.05   0.06   0.02     0.01  -0.02  -0.02
  29   1     0.00  -0.00  -0.01    -0.04  -0.03  -0.03     0.00  -0.01  -0.00
  30   6     0.02   0.01  -0.01     0.04   0.02  -0.03     0.01   0.01  -0.00
  31   8     0.02  -0.01  -0.01     0.06  -0.02   0.00     0.02  -0.01   0.01
  32   7    -0.02   0.01  -0.01    -0.06   0.02  -0.06    -0.02   0.00  -0.02
  33   1    -0.00   0.02   0.03    -0.01   0.04   0.06    -0.00   0.01   0.01
  34   1    -0.01   0.01  -0.01    -0.02   0.02  -0.02    -0.01   0.01  -0.00
  35   7    -0.01  -0.00   0.03    -0.01   0.01   0.07    -0.01   0.00   0.02
  36   1     0.01  -0.02   0.01     0.02  -0.02   0.11     0.01  -0.02   0.02
  37   1    -0.02  -0.02  -0.01    -0.08  -0.10  -0.06    -0.03  -0.03  -0.02
  38   6     0.02   0.02  -0.02     0.10   0.09  -0.06    -0.18  -0.07   0.07
  39   8     0.03   0.00  -0.03     0.12   0.05  -0.10    -0.01  -0.14   0.24
  40   7    -0.06   0.04   0.01    -0.22   0.10   0.01     0.19   0.10   0.02
  41   1     0.02  -0.10  -0.06     0.04  -0.33  -0.16     0.25  -0.17  -0.44
  42   1    -0.02   0.04   0.02    -0.12   0.16   0.04     0.22   0.13   0.28
  43   7    -0.01  -0.03   0.06    -0.02  -0.10   0.22    -0.13   0.09  -0.24
  44   1     0.06  -0.12  -0.12     0.22  -0.41  -0.36    -0.07  -0.02  -0.21
  45   1    -0.01   0.08   0.05    -0.04   0.21   0.16     0.07   0.11  -0.06
  46   6    -0.00   0.01   0.00     0.02  -0.04  -0.02     0.01  -0.02  -0.01
  47   8    -0.01   0.01   0.01     0.02  -0.05  -0.02     0.01  -0.02  -0.01
  48   7    -0.00  -0.01  -0.00     0.02   0.05  -0.01     0.00   0.04  -0.01
  49   1     0.02  -0.01   0.01    -0.02   0.03   0.02     0.01   0.01   0.03
  50   1    -0.03  -0.01  -0.01     0.03   0.03  -0.01     0.00   0.02  -0.02
  51   7     0.01   0.01  -0.00    -0.04  -0.01   0.03    -0.02  -0.00   0.03
  52   1     0.02   0.00   0.01    -0.02  -0.03   0.04     0.01  -0.02   0.04
  53   1    -0.01   0.00  -0.02    -0.01   0.03   0.02    -0.02   0.02  -0.01
                     43                     44                     45
                        a                      a                      a 
 Frequencies --   470.6793               474.0134               476.3627
 Red. masses --     4.9593                 3.5629                 4.7720
 Frc consts  --     0.0000                 0.0000                 0.0000
 IR Inten    --     8.9834                 3.1344                27.5675
 Raman Activ --     0.0000                 0.0000                 0.0000
 Depolar     --     0.0000                 0.0000                 0.0000
 Atom AN      X      Y      Z        X      Y      Z        X      Y      Z
   1   8    -0.00  -0.00   0.01     0.00   0.01  -0.00     0.00  -0.00  -0.01
   2   6    -0.00  -0.00  -0.00    -0.00  -0.01  -0.00     0.00  -0.01  -0.03
   3   1     0.00   0.00  -0.01     0.00  -0.01   0.01     0.01  -0.00  -0.01
   4   1     0.00   0.00   0.00    -0.01  -0.01  -0.00     0.01  -0.00  -0.01
   5   6     0.00  -0.02   0.01     0.00   0.00  -0.00    -0.05  -0.02  -0.04
   6   1    -0.00  -0.02   0.01     0.00   0.00  -0.00    -0.01   0.03  -0.04
   7   1     0.01  -0.00   0.00    -0.00   0.00   0.00    -0.06  -0.02  -0.01
   8   7    -0.01  -0.00  -0.02     0.00   0.00   0.00     0.01  -0.07   0.05
   9   6     0.02   0.01   0.00    -0.00  -0.00   0.00    -0.02   0.07  -0.03
  10   1     0.00   0.00   0.01    -0.00  -0.00  -0.00     0.00   0.03  -0.04
  11   1     0.01   0.00   0.00    -0.00  -0.00   0.00    -0.04   0.04   0.01
  12   1     0.01   0.00  -0.01    -0.00  -0.00   0.00     0.00   0.03  -0.03
  13   6    -0.02   0.00  -0.00     0.00  -0.00   0.00     0.06   0.06  -0.02
  14   1    -0.01   0.00  -0.00     0.00  -0.00   0.00    -0.00   0.03  -0.03
  15   1    -0.01   0.00   0.00     0.00  -0.00  -0.00     0.05   0.03   0.01
  16   1    -0.00   0.00   0.00    -0.00   0.00  -0.00     0.01   0.03  -0.02
  17   6     0.01   0.02   0.00    -0.00  -0.00   0.00    -0.01  -0.05   0.09
  18   1     0.00   0.00   0.01    -0.00   0.00  -0.00    -0.01  -0.02   0.03
  19   1     0.00   0.01   0.00     0.00  -0.00   0.00    -0.00   0.00   0.02
  20   1     0.00   0.01  -0.00     0.00  -0.00  -0.00    -0.00  -0.01   0.02
  21   1    -0.00   0.00   0.00     0.00  -0.02  -0.05     0.00   0.02   0.03
  22   6     0.14   0.08  -0.08    -0.00   0.01   0.01     0.08   0.09   0.06
  23   8     0.23  -0.06   0.01    -0.00   0.01   0.02     0.11   0.05   0.10
  24   7    -0.06  -0.15   0.07    -0.01  -0.01   0.00    -0.05  -0.14   0.08
  25   1    -0.36   0.16   0.42     0.04  -0.06  -0.12     0.04  -0.24  -0.42
  26   1     0.15  -0.41  -0.23    -0.03   0.06   0.09    -0.06   0.08   0.35
  27   7    -0.21   0.17  -0.01     0.01  -0.01  -0.03    -0.09   0.02  -0.16
  28   1    -0.06   0.07  -0.12    -0.01   0.01   0.01    -0.05   0.06  -0.08
  29   1    -0.09  -0.04  -0.05    -0.00   0.00   0.01    -0.08  -0.00   0.04
  30   6    -0.08  -0.06   0.06    -0.01  -0.01   0.03    -0.10  -0.10   0.03
  31   8    -0.15   0.07  -0.00    -0.04  -0.01  -0.02    -0.18   0.08  -0.02
  32   7     0.12  -0.07   0.09     0.04  -0.02   0.01     0.16  -0.06   0.13
  33   1     0.04  -0.03  -0.04     0.01  -0.00   0.01     0.03  -0.07  -0.08
  34   1     0.04  -0.05   0.03     0.02   0.03   0.04     0.04  -0.08   0.00
  35   7     0.05   0.04  -0.12    -0.02   0.01  -0.01     0.06   0.03  -0.12
  36   1    -0.03   0.06  -0.18     0.01  -0.07  -0.18    -0.05   0.07  -0.24
  37   1     0.17   0.11   0.04     0.08   0.07   0.04     0.20   0.18   0.09
  38   6    -0.02  -0.02   0.01     0.02   0.01  -0.01    -0.03  -0.01   0.01
  39   8    -0.02  -0.02   0.02     0.00   0.02  -0.02     0.00  -0.03   0.05
  40   7     0.04   0.00   0.00    -0.02  -0.01  -0.00     0.01   0.04   0.02
  41   1     0.01   0.03  -0.00    -0.02   0.01   0.04     0.07  -0.09  -0.13
  42   1     0.03  -0.03  -0.00    -0.03  -0.00  -0.02     0.05   0.02   0.05
  43   7    -0.02   0.03  -0.03     0.02  -0.01   0.02    -0.03   0.01  -0.04
  44   1    -0.02   0.02  -0.01     0.01   0.01   0.03    -0.00  -0.02  -0.05
  45   1     0.02  -0.02  -0.03    -0.01  -0.02   0.01     0.02   0.01  -0.02
  46   6     0.01  -0.03  -0.02     0.03  -0.12  -0.09     0.01  -0.03  -0.01
  47   8     0.03  -0.01  -0.04     0.07  -0.10  -0.13     0.04   0.01  -0.03
  48   7     0.01   0.05   0.00    -0.00   0.23  -0.06     0.03   0.03   0.02
  49   1    -0.03   0.03   0.02     0.30   0.01   0.42    -0.17   0.06  -0.11
  50   1     0.03   0.04  -0.01    -0.20   0.19  -0.32     0.14   0.01   0.09
  51   7    -0.04  -0.00   0.05    -0.09  -0.05   0.24    -0.06   0.00   0.03
  52   1    -0.03  -0.02   0.03     0.12  -0.14   0.31    -0.10   0.01  -0.04
  53   1    -0.02   0.02   0.01    -0.29   0.16  -0.16     0.05  -0.01   0.08
                     46                     47                     48
                        a                      a                      a 
 Frequencies --   478.5401               487.9740               504.9423
 Red. masses --     7.6367                 5.6855                 5.3548
 Frc consts  --     0.0000                 0.0000                 0.0000
 IR Inten    --     8.1008                28.1719                21.6182
 Raman Activ --     0.0000                 0.0000                 0.0000
 Depolar     --     0.0000                 0.0000                 0.0000
 Atom AN      X      Y      Z        X      Y      Z        X      Y      Z
   1   8     0.01   0.01  -0.03     0.00  -0.00  -0.00    -0.00   0.01   0.00
   2   6     0.02  -0.06  -0.10    -0.00   0.01   0.02    -0.00  -0.00  -0.01
   3   1     0.02  -0.02  -0.03    -0.00   0.01   0.00    -0.00  -0.00  -0.00
   4   1     0.01  -0.02  -0.04     0.00   0.00   0.01    -0.00  -0.00  -0.00
   5   6    -0.15  -0.02  -0.14     0.00   0.01   0.01    -0.01  -0.00  -0.01
   6   1    -0.02   0.12  -0.14    -0.00  -0.01   0.01    -0.00   0.00  -0.01
   7   1    -0.18  -0.05  -0.05     0.00   0.01   0.01    -0.00  -0.00  -0.00
   8   7     0.06  -0.21   0.19     0.00   0.01  -0.02     0.00  -0.01   0.01
   9   6    -0.11   0.20  -0.10     0.01  -0.02   0.00    -0.01   0.01  -0.01
  10   1     0.01   0.08  -0.13     0.00  -0.01   0.01     0.00   0.01  -0.01
  11   1    -0.14   0.13   0.04     0.01  -0.01  -0.01    -0.01   0.01   0.00
  12   1    -0.02   0.08  -0.09     0.00  -0.01   0.01    -0.00   0.00  -0.00
  13   6     0.23   0.18  -0.07    -0.01  -0.02   0.01     0.01   0.01  -0.01
  14   1     0.01   0.10  -0.08     0.00  -0.01   0.00     0.00   0.01  -0.01
  15   1     0.18   0.07   0.01    -0.02  -0.00   0.00     0.01   0.00   0.00
  16   1     0.04   0.09  -0.06    -0.00  -0.01   0.01     0.00   0.00  -0.00
  17   6    -0.03  -0.18   0.28    -0.00   0.01  -0.02    -0.00  -0.01   0.02
  18   1    -0.04  -0.05   0.09     0.00   0.00  -0.01    -0.00  -0.00   0.00
  19   1    -0.00  -0.01   0.07    -0.00   0.00  -0.01    -0.00  -0.00   0.00
  20   1    -0.01  -0.07   0.08    -0.00   0.00  -0.00    -0.00  -0.00   0.00
  21   1     0.01   0.01   0.01     0.00   0.01   0.02     0.00   0.00   0.00
  22   6    -0.04  -0.06  -0.01    -0.12  -0.13  -0.00     0.04   0.03   0.02
  23   8    -0.08  -0.00  -0.05    -0.22   0.00  -0.10     0.04   0.03   0.01
  24   7     0.04   0.08  -0.03     0.08   0.20  -0.07     0.01  -0.05   0.02
  25   1     0.03   0.09   0.14     0.15   0.12   0.17    -0.02  -0.03  -0.04
  26   1     0.01   0.00  -0.14    -0.01   0.11  -0.22     0.01  -0.02   0.04
  27   7     0.05  -0.03   0.09     0.19  -0.10   0.19    -0.08   0.01  -0.04
  28   1     0.05  -0.07  -0.02     0.13  -0.16   0.01    -0.05   0.06   0.01
  29   1     0.04   0.01   0.00     0.12   0.04   0.01    -0.04  -0.04  -0.03
  30   6     0.01   0.03   0.01    -0.02  -0.08  -0.04     0.12   0.01  -0.08
  31   8     0.03  -0.01   0.01    -0.05   0.02  -0.04     0.16  -0.04  -0.05
  32   7    -0.02   0.02  -0.02     0.04   0.03   0.07    -0.18   0.12  -0.05
  33   1    -0.01   0.00  -0.01    -0.02  -0.04  -0.04    -0.09   0.03   0.09
  34   1    -0.01   0.01  -0.00    -0.00   0.00  -0.02    -0.07   0.12  -0.02
  35   7    -0.02  -0.01   0.01    -0.05  -0.07   0.01    -0.06  -0.14   0.15
  36   1     0.01  -0.01   0.04    -0.02  -0.11  -0.34     0.04  -0.18  -0.09
[...]
  44   1     0.04   0.06  -0.04     0.07   0.09  -0.06     0.01   0.01  -0.01
  45   1     0.15  -0.19   0.48     0.22  -0.28   0.70     0.02  -0.03   0.08
  46   6     0.00   0.00   0.00    -0.00  -0.00  -0.00    -0.00   0.01   0.01
  47   8    -0.00  -0.00  -0.00     0.00   0.00   0.00     0.00  -0.01  -0.00
  48   7    -0.00  -0.00  -0.00     0.00   0.00   0.00    -0.00  -0.00   0.00
  49   1     0.00   0.00   0.00    -0.00  -0.00   0.00     0.01   0.02  -0.00
  50   1     0.00   0.00  -0.00    -0.00   0.00   0.00     0.00  -0.01  -0.01
  51   7     0.00   0.00  -0.00    -0.01  -0.00   0.00     0.02   0.01  -0.02
  52   1     0.00  -0.00  -0.00    -0.00   0.01   0.01     0.01  -0.03  -0.03
  53   1    -0.02  -0.01   0.02     0.02   0.01  -0.02    -0.09  -0.02   0.09
                    142                    143                    144
                        a                      a                      a 
 Frequencies --  3431.5342              3447.4751              3488.3834
 Red. masses --     1.5817                 1.5490                 1.4879
 Frc consts  --     0.0000                 0.0000                 0.0000
 IR Inten    --    69.5973               146.8755                13.1388
 Raman Activ --     0.0000                 0.0000                 0.0000
 Depolar     --     0.0000                 0.0000                 0.0000
 Atom AN      X      Y      Z        X      Y      Z        X      Y      Z
   1   8     0.00  -0.00   0.00     0.00  -0.00   0.00    -0.00   0.00   0.00
   2   6    -0.00   0.00   0.00    -0.00   0.00   0.00     0.00  -0.00  -0.00
   3   1    -0.00   0.00  -0.00    -0.00   0.00   0.00    -0.00   0.00  -0.00
   4   1    -0.00   0.00  -0.00     0.00  -0.00  -0.00    -0.00  -0.00   0.00
   5   6    -0.00   0.00  -0.00    -0.00   0.00  -0.00     0.00  -0.00   0.00
   6   1    -0.00  -0.00   0.00     0.00  -0.00   0.00    -0.00  -0.00  -0.00
   7   1    -0.00  -0.00   0.00    -0.00  -0.00   0.00    -0.00   0.00  -0.00
   8   7     0.00  -0.00  -0.00     0.00   0.00  -0.00     0.00   0.00  -0.00
   9   6    -0.00   0.00  -0.00    -0.00   0.00  -0.00     0.00  -0.00   0.00
  10   1     0.00  -0.00   0.00     0.00  -0.00   0.00    -0.00  -0.00   0.00
  11   1    -0.00  -0.00   0.00    -0.00  -0.00   0.00    -0.00   0.00  -0.00
  12   1     0.00  -0.00  -0.00     0.00   0.00  -0.00    -0.00  -0.00   0.00
  13   6     0.00   0.00  -0.00     0.00   0.00  -0.00    -0.00  -0.00   0.00
  14   1    -0.00  -0.00  -0.00     0.00  -0.00  -0.00    -0.00  -0.00   0.00
  15   1    -0.00  -0.00   0.00    -0.00  -0.00   0.00     0.00   0.00  -0.00
  16   1    -0.00   0.00   0.00    -0.00   0.00   0.00    -0.00  -0.00   0.00
  17   6    -0.00  -0.00   0.00    -0.00   0.00   0.00    -0.00   0.00  -0.00
  18   1    -0.00   0.00   0.00    -0.00   0.00  -0.00     0.00  -0.00   0.00
  19   1     0.00   0.00  -0.00     0.00   0.00  -0.00     0.00  -0.00   0.00
  20   1    -0.00   0.00  -0.00     0.00  -0.00   0.00    -0.00  -0.00  -0.00
  21   1    -0.00   0.01  -0.01    -0.00   0.02  -0.01     0.00  -0.00  -0.00
  22   6     0.00  -0.00   0.00     0.00   0.00   0.00     0.00   0.00  -0.00
  23   8    -0.00   0.00  -0.00    -0.00   0.00  -0.00    -0.00  -0.00  -0.00
  24   7     0.00  -0.00  -0.00     0.00  -0.00   0.00     0.00  -0.00   0.00
  25   1     0.00   0.00  -0.00     0.00   0.00  -0.00     0.00   0.00  -0.00
  26   1    -0.00  -0.00   0.00    -0.00  -0.00   0.00    -0.00  -0.00   0.00
  27   7    -0.00   0.00  -0.00    -0.00   0.00  -0.00    -0.00  -0.00   0.00
  28   1    -0.00  -0.00  -0.00    -0.00  -0.00  -0.00     0.00   0.00   0.00
  29   1     0.00  -0.00   0.00     0.01  -0.01   0.01    -0.00   0.00  -0.00
  30   6    -0.00  -0.00  -0.00     0.01   0.00   0.00     0.00  -0.00  -0.00
  31   8     0.00   0.00  -0.00    -0.00  -0.00   0.00    -0.00   0.00   0.00
  32   7     0.01   0.00  -0.00     0.05   0.01  -0.02    -0.00  -0.00   0.00
  33   1    -0.00   0.00  -0.00    -0.01   0.01  -0.00    -0.00   0.00  -0.00
  34   1    -0.04  -0.01   0.01    -0.16  -0.03   0.07     0.00   0.00  -0.00
  35   7    -0.11  -0.02  -0.03     0.15   0.03   0.05    -0.00  -0.00   0.00
  36   1     0.44   0.24  -0.08    -0.59  -0.33   0.11     0.01   0.01  -0.00
  37   1    -0.03  -0.16   0.22     0.03   0.23  -0.31    -0.00  -0.00   0.00
  38   6    -0.00  -0.00   0.00    -0.00  -0.00  -0.00     0.00  -0.00  -0.00
  39   8     0.00   0.00  -0.00     0.00   0.00  -0.00    -0.00  -0.00   0.00
  40   7     0.00  -0.00   0.00    -0.00   0.00  -0.00    -0.03   0.07  -0.16
  41   1    -0.00  -0.00  -0.00     0.01   0.00   0.00     0.60   0.07   0.22
  42   1     0.00   0.00  -0.00    -0.01  -0.01   0.01    -0.47  -0.31   0.38
  43   7    -0.00  -0.00  -0.00     0.00  -0.00   0.00    -0.04  -0.06   0.04
  44   1     0.00   0.00  -0.00     0.00   0.00  -0.00     0.16   0.21  -0.10
  45   1     0.00  -0.00   0.00    -0.00  -0.00  -0.00    -0.02   0.01  -0.04
  46   6     0.00   0.01  -0.00     0.00  -0.00  -0.00     0.00  -0.00  -0.00
  47   8     0.00  -0.00  -0.00     0.00  -0.00   0.00    -0.00   0.00   0.00
  48   7     0.00   0.00  -0.00     0.00   0.00  -0.00    -0.00  -0.00   0.00
  49   1    -0.01  -0.02   0.00    -0.02  -0.04   0.01     0.00   0.00  -0.00
  50   1    -0.01   0.02   0.01    -0.01   0.02   0.02     0.00  -0.00  -0.00
  51   7     0.12   0.08  -0.10     0.08   0.06  -0.06    -0.00  -0.00   0.00
  52   1     0.09  -0.19  -0.15     0.07  -0.15  -0.12    -0.00   0.00   0.00
  53   1    -0.53  -0.12   0.51    -0.36  -0.08   0.36     0.00   0.00  -0.00
                    145                    146                    147
                        a                      a                      a 
 Frequencies --  3492.6831              3493.5047              3503.7820
 Red. masses --     1.8748                 1.4589                 1.4535
 Frc consts  --     0.0000                 0.0000                 0.0000
 IR Inten    --    19.3079                31.3422                14.4282
 Raman Activ --     0.0000                 0.0000                 0.0000
 Depolar     --     0.0000                 0.0000                 0.0000
 Atom AN      X      Y      Z        X      Y      Z        X      Y      Z
   1   8    -0.00  -0.00   0.00    -0.00   0.00  -0.00     0.00  -0.00   0.00
   2   6     0.00  -0.00  -0.00    -0.00  -0.00  -0.00    -0.00  -0.00   0.00
   3   1     0.00  -0.00   0.00     0.00   0.00   0.00    -0.00   0.00   0.00
   4   1     0.00   0.00  -0.00     0.00   0.00  -0.00     0.00   0.00  -0.00
   5   6    -0.00  -0.00   0.00     0.00  -0.00  -0.00     0.00   0.00  -0.00
   6   1     0.00   0.00   0.00     0.00  -0.00  -0.00    -0.00  -0.00   0.00
   7   1    -0.00   0.00  -0.00     0.00  -0.00   0.00    -0.00   0.00  -0.00
   8   7    -0.00  -0.00  -0.00     0.00   0.00   0.00     0.00  -0.00   0.00
   9   6    -0.00  -0.00   0.00    -0.00   0.00  -0.00    -0.00   0.00  -0.00
  10   1     0.00  -0.00   0.00     0.00  -0.00   0.00     0.00  -0.00   0.00
  11   1    -0.00  -0.00  -0.00    -0.00  -0.00   0.00    -0.00  -0.00   0.00
  12   1    -0.00   0.00  -0.00    -0.00   0.00   0.00     0.00   0.00   0.00
  13   6    -0.00  -0.00   0.00     0.00  -0.00  -0.00     0.00   0.00  -0.00
  14   1    -0.00  -0.00  -0.00     0.00   0.00   0.00     0.00   0.00   0.00
  15   1     0.00   0.00  -0.00     0.00  -0.00   0.00    -0.00  -0.00   0.00
  16   1    -0.00   0.00   0.00    -0.00   0.00   0.00     0.00  -0.00   0.00
  17   6    -0.00   0.00   0.00     0.00  -0.00  -0.00    -0.00  -0.00  -0.00
  18   1     0.00  -0.00  -0.00    -0.00   0.00  -0.00     0.00   0.00   0.00
  19   1     0.00  -0.00  -0.00    -0.00   0.00   0.00    -0.00   0.00   0.00
  20   1     0.00   0.00  -0.00     0.00   0.00   0.00     0.00  -0.00   0.00
  21   1    -0.00   0.00  -0.00     0.00  -0.02   0.01    -0.00   0.00  -0.00
  22   6    -0.00  -0.00  -0.00    -0.00  -0.00   0.00    -0.00   0.00   0.00
  23   8     0.00   0.00   0.00     0.00   0.00   0.00     0.00   0.00  -0.00
  24   7    -0.00   0.00  -0.00    -0.00   0.00  -0.00    -0.16   0.07  -0.06
  25   1    -0.00  -0.01   0.01    -0.00  -0.00   0.00    -0.07  -0.58   0.26
  26   1     0.01   0.01  -0.00     0.00   0.00  -0.00     0.67   0.33  -0.03
  27   7     0.00   0.00  -0.00    -0.00   0.00  -0.00     0.02   0.00   0.00
  28   1    -0.01  -0.01  -0.00    -0.00  -0.00  -0.00    -0.05  -0.03  -0.01
  29   1     0.00  -0.00   0.00     0.00  -0.00   0.00    -0.01   0.01  -0.01
  30   6    -0.00  -0.00   0.00    -0.00   0.00  -0.00    -0.00   0.00  -0.00
  31   8     0.00   0.00  -0.00    -0.00   0.00   0.00     0.00  -0.00   0.00
  32   7    -0.00   0.00  -0.00    -0.01   0.00   0.00     0.00  -0.00   0.00
  33   1     0.01  -0.01   0.00     0.01  -0.01   0.00    -0.01   0.01  -0.00
  34   1    -0.00   0.00   0.00     0.03   0.01  -0.01    -0.00  -0.00   0.00
  35   7    -0.00  -0.00   0.00    -0.00   0.00  -0.00    -0.00  -0.00   0.00
  36   1     0.00   0.00  -0.00     0.01   0.00  -0.00     0.00   0.00  -0.00
  37   1    -0.00   0.00  -0.00    -0.00  -0.01   0.02     0.00   0.00  -0.01
  38   6     0.00   0.01  -0.01     0.00   0.00  -0.00    -0.00  -0.00   0.00
  39   8    -0.00  -0.00   0.00    -0.00  -0.00   0.00     0.00   0.00  -0.00
  40   7    -0.03   0.02  -0.05    -0.00   0.00  -0.00     0.00  -0.00   0.00
  41   1     0.22   0.02   0.08     0.01   0.00   0.00    -0.00  -0.00  -0.00
  42   1    -0.12  -0.08   0.10    -0.01  -0.00   0.01     0.00   0.00  -0.00
  43   7     0.13   0.18  -0.12     0.01   0.01  -0.01    -0.00  -0.01   0.01
  44   1    -0.52  -0.67   0.34    -0.02  -0.03   0.02     0.01   0.02  -0.01
  45   1     0.04  -0.03   0.11     0.00  -0.00   0.01    -0.00   0.00  -0.01
  46   6    -0.00  -0.00   0.00     0.00   0.00  -0.00    -0.00  -0.00   0.00
  47   8     0.00  -0.00  -0.00    -0.00   0.00   0.00     0.00   0.00  -0.00
  48   7    -0.01  -0.00   0.01     0.13   0.05  -0.12    -0.00  -0.00   0.00
  49   1     0.01   0.03  -0.00    -0.27  -0.69   0.10     0.00   0.00  -0.00
  50   1     0.01  -0.02  -0.02    -0.22   0.49   0.34    -0.00  -0.00  -0.00
  51   7     0.00   0.00  -0.00    -0.01  -0.00   0.01     0.00   0.00  -0.00
  52   1     0.00  -0.00  -0.00     0.00  -0.01  -0.00     0.00  -0.00  -0.00
  53   1    -0.00  -0.00   0.00     0.04   0.01  -0.04    -0.00  -0.00   0.00
                    148                    149                    150
                        a                      a                      a 
 Frequencies --  3512.6616              3531.2372              3544.1186
 Red. masses --     2.1030                 1.8757                 2.0621
 Frc consts  --     0.0000                 0.0000                 0.0000
 IR Inten    --    18.1466                12.6173                24.3386
 Raman Activ --     0.0000                 0.0000                 0.0000
 Depolar     --     0.0000                 0.0000                 0.0000
 Atom AN      X      Y      Z        X      Y      Z        X      Y      Z
   1   8    -0.00   0.00  -0.00    -0.00   0.00  -0.00     0.00  -0.00   0.00
   2   6     0.00   0.00   0.00     0.00   0.00   0.00    -0.00   0.00   0.00
   3   1    -0.00  -0.00  -0.00    -0.00  -0.00  -0.00     0.00   0.00  -0.00
   4   1    -0.00  -0.00   0.00    -0.00   0.00  -0.00     0.00  -0.00  -0.00
   5   6     0.00  -0.00   0.00     0.00   0.00  -0.00     0.00   0.00  -0.00
   6   1    -0.00   0.00  -0.00    -0.00   0.00  -0.00     0.00  -0.00   0.00
   7   1     0.00   0.00  -0.00     0.00  -0.00   0.00    -0.00  -0.00   0.00
   8   7    -0.00  -0.00   0.00    -0.00  -0.00  -0.00    -0.00  -0.00   0.00
   9   6     0.00   0.00   0.00     0.00   0.00  -0.00    -0.00   0.00  -0.00
  10   1    -0.00   0.00  -0.00    -0.00   0.00  -0.00     0.00  -0.00   0.00
  11   1     0.00   0.00   0.00     0.00  -0.00   0.00    -0.00  -0.00   0.00
  12   1    -0.00  -0.00  -0.00    -0.00  -0.00   0.00     0.00   0.00   0.00
  13   6    -0.00   0.00  -0.00     0.00   0.00  -0.00     0.00   0.00  -0.00
  14   1    -0.00  -0.00  -0.00    -0.00  -0.00  -0.00     0.00  -0.00   0.00
  15   1     0.00  -0.00   0.00     0.00  -0.00   0.00    -0.00  -0.00   0.00
  16   1     0.00  -0.00  -0.00     0.00  -0.00   0.00    -0.00   0.00   0.00
  17   6     0.00   0.00   0.00     0.00   0.00   0.00    -0.00  -0.00   0.00
  18   1    -0.00  -0.00  -0.00     0.00  -0.00  -0.00    -0.00   0.00  -0.00
  19   1     0.00  -0.00  -0.00    -0.00   0.00   0.00     0.00   0.00  -0.00
  20   1    -0.00   0.00  -0.00    -0.00   0.00  -0.00    -0.00   0.00   0.00
  21   1     0.00  -0.00   0.00     0.00  -0.00   0.00    -0.00   0.00  -0.00
  22   6    -0.00  -0.00   0.00    -0.01   0.00  -0.00    -0.00  -0.00   0.00
  23   8     0.00  -0.00  -0.00     0.00   0.00   0.00    -0.00   0.00  -0.00
  24   7     0.00  -0.00   0.00     0.00   0.02  -0.01    -0.00   0.00  -0.00
  25   1     0.00   0.00  -0.00    -0.01  -0.08   0.04    -0.00  -0.00   0.00
  26   1    -0.01  -0.00   0.00     0.01   0.00  -0.00     0.00   0.00  -0.00
  27   7     0.00   0.00  -0.00    -0.23  -0.12  -0.03    -0.00  -0.00  -0.00
  28   1    -0.01  -0.00  -0.00     0.83   0.47   0.08     0.01   0.00   0.00
  29   1     0.00  -0.00   0.00     0.03  -0.04   0.02     0.00  -0.00   0.00
  30   6    -0.00  -0.01   0.01    -0.00  -0.00   0.00     0.00  -0.00   0.00
  31   8     0.00   0.00  -0.00     0.00   0.00  -0.00    -0.00   0.00   0.00
  32   7    -0.01   0.00   0.00     0.00   0.00  -0.00     0.00   0.00  -0.00
  33   1     0.01  -0.01   0.00     0.00   0.00  -0.00     0.00  -0.00   0.00
  34   1     0.03   0.01  -0.01    -0.00  -0.00   0.00    -0.00  -0.00   0.00
  35   7    -0.11  -0.18   0.20    -0.00  -0.00   0.00    -0.00  -0.00   0.00
  36   1     0.39   0.21  -0.05     0.00   0.00   0.00    -0.00  -0.00   0.00
  37   1     0.04   0.48  -0.70     0.00   0.00  -0.01     0.00   0.01  -0.02
  38   6     0.00   0.00  -0.00     0.00   0.00   0.00    -0.00  -0.00   0.00
  39   8    -0.00  -0.00   0.00    -0.00  -0.00   0.00     0.00   0.00  -0.00
  40   7     0.00  -0.00   0.00    -0.00  -0.00   0.00     0.00   0.00   0.00
  41   1    -0.01  -0.00  -0.00     0.00   0.00   0.00    -0.00  -0.00  -0.00
  42   1     0.00   0.00  -0.00     0.00   0.00  -0.00    -0.00  -0.00   0.00
  43   7    -0.00   0.00  -0.00     0.00   0.00  -0.00     0.00   0.00  -0.00
  44   1     0.00   0.00  -0.00    -0.01  -0.01   0.00    -0.00  -0.00   0.00
  45   1     0.00  -0.00   0.00     0.00   0.00  -0.00     0.00  -0.00   0.00
  46   6    -0.00   0.00   0.00    -0.00  -0.00   0.00     0.01  -0.00  -0.01
  47   8    -0.00  -0.00  -0.00     0.00  -0.00  -0.00    -0.00   0.00   0.00
  48   7     0.00  -0.00  -0.00     0.00  -0.00  -0.00     0.00   0.06   0.01
  49   1    -0.00  -0.01   0.00     0.00   0.00  -0.00    -0.05  -0.12   0.02
  50   1    -0.00   0.01   0.01    -0.00   0.00   0.00     0.04  -0.09  -0.06
  51   7    -0.00   0.00   0.00    -0.00   0.00   0.00     0.12  -0.17  -0.19
  52   1     0.00  -0.01  -0.01     0.00  -0.01  -0.00    -0.26   0.68   0.51
  53   1     0.00  -0.00  -0.00    -0.00   0.00   0.00    -0.21  -0.07   0.20
                    151                    152                    153
                        a                      a                      a 
 Frequencies --  3554.4337              3559.6768              3570.8708
 Red. masses --     2.1811                 2.1788                 2.1790
 Frc consts  --     0.0000                 0.0000                 0.0000
 IR Inten    --    10.9907                28.0056                11.6251
 Raman Activ --     0.0000                 0.0000                 0.0000
 Depolar     --     0.0000                 0.0000                 0.0000
 Atom AN      X      Y      Z        X      Y      Z        X      Y      Z
   1   8    -0.00   0.00  -0.00    -0.00  -0.00   0.00    -0.00   0.00  -0.00
   2   6     0.00  -0.00  -0.00     0.00   0.00   0.00     0.00   0.00  -0.00
   3   1    -0.00   0.00   0.00    -0.00  -0.00  -0.00    -0.00  -0.00  -0.00
   4   1    -0.00  -0.00   0.00     0.00  -0.00   0.00    -0.00   0.00   0.00
   5   6     0.00  -0.00   0.00    -0.00   0.00   0.00    -0.00   0.00  -0.00
   6   1    -0.00  -0.00   0.00    -0.00  -0.00   0.00     0.00   0.00  -0.00
   7   1    -0.00   0.00  -0.00    -0.00   0.00   0.00     0.00  -0.00   0.00
   8   7    -0.00   0.00  -0.00    -0.00  -0.00  -0.00    -0.00  -0.00  -0.00
   9   6     0.00  -0.00   0.00     0.00  -0.00   0.00     0.00   0.00   0.00
  10   1     0.00  -0.00   0.00    -0.00   0.00  -0.00    -0.00   0.00  -0.00
  11   1    -0.00   0.00  -0.00    -0.00   0.00  -0.00     0.00  -0.00   0.00
  12   1     0.00   0.00   0.00     0.00  -0.00  -0.00    -0.00  -0.00  -0.00
  13   6    -0.00  -0.00   0.00    -0.00   0.00   0.00     0.00   0.00  -0.00
  14   1     0.00  -0.00   0.00    -0.00  -0.00  -0.00    -0.00  -0.00  -0.00
  15   1     0.00   0.00  -0.00    -0.00   0.00   0.00     0.00  -0.00   0.00
  16   1     0.00  -0.00   0.00     0.00  -0.00  -0.00     0.00   0.00  -0.00
  17   6    -0.00   0.00  -0.00    -0.00   0.00   0.00     0.00   0.00   0.00
  18   1     0.00   0.00   0.00     0.00  -0.00  -0.00    -0.00  -0.00  -0.00
  19   1     0.00  -0.00  -0.00     0.00  -0.00  -0.00     0.00  -0.00  -0.00
  20   1     0.00  -0.00   0.00    -0.00  -0.00  -0.00    -0.00   0.00  -0.00
  21   1     0.00  -0.00   0.00    -0.00   0.01  -0.00     0.00  -0.00   0.00
  22   6     0.00   0.00   0.00     0.00   0.00  -0.00    -0.01  -0.01   0.00
  23   8    -0.00  -0.00  -0.00    -0.00  -0.00   0.00     0.00   0.00  -0.00
  24   7    -0.00  -0.00   0.00     0.00   0.00  -0.00    -0.16  -0.24   0.08
  25   1     0.00   0.00  -0.00    -0.00  -0.00   0.00     0.05   0.66  -0.30
  26   1     0.00   0.00  -0.00    -0.00  -0.00   0.00     0.56   0.25  -0.01
  27   7     0.00   0.00   0.00    -0.00  -0.00  -0.00    -0.01  -0.01  -0.00
  28   1    -0.00  -0.00  -0.00     0.00   0.00   0.00     0.05   0.03   0.00
  29   1     0.00   0.00   0.00     0.00  -0.00   0.00     0.00  -0.00   0.00
  30   6    -0.00  -0.00   0.00     0.00  -0.00   0.00    -0.00  -0.00   0.00
  31   8     0.00  -0.00  -0.00    -0.00   0.00  -0.00     0.00   0.00  -0.00
  32   7    -0.00  -0.00   0.00     0.00   0.00  -0.00    -0.00   0.00  -0.00
  33   1    -0.00   0.00   0.00    -0.00   0.00  -0.00     0.01  -0.01   0.00
  34   1     0.00   0.00  -0.00    -0.01  -0.00   0.00     0.00   0.00  -0.00
  35   7    -0.00  -0.00   0.00     0.00   0.00   0.00    -0.00  -0.00   0.00
  36   1     0.00   0.00  -0.00    -0.00  -0.00   0.00     0.00   0.00  -0.00
  37   1     0.00   0.00  -0.00     0.00   0.00  -0.00     0.00   0.00  -0.00
  38   6    -0.01  -0.00   0.00    -0.00  -0.00   0.00     0.00   0.00  -0.00
  39   8     0.00   0.00  -0.00     0.00  -0.00  -0.00    -0.00  -0.00  -0.00
  40   7    -0.28  -0.10   0.04    -0.00  -0.00   0.00     0.00   0.00  -0.00
  41   1     0.63   0.07   0.26     0.00   0.00   0.00    -0.00  -0.00  -0.00
  42   1     0.44   0.30  -0.39     0.00   0.00  -0.00    -0.00  -0.00   0.00
  43   7    -0.00  -0.01   0.01     0.00  -0.00   0.00    -0.00   0.00  -0.00
  44   1     0.03   0.03  -0.02     0.00   0.00  -0.00    -0.00  -0.00   0.00
  45   1    -0.00   0.00  -0.01    -0.00   0.00  -0.00     0.00  -0.00   0.01
  46   6     0.00   0.00  -0.00     0.00  -0.01  -0.00     0.00   0.00   0.00
  47   8    -0.00   0.00   0.00    -0.00   0.00   0.00    -0.00  -0.00  -0.00
  48   7    -0.00   0.00   0.00     0.01  -0.28  -0.08    -0.00  -0.00  -0.00
  49   1    -0.00  -0.00   0.00     0.23   0.54  -0.09     0.00   0.00  -0.00
  50   1     0.00  -0.00  -0.00    -0.27   0.54   0.39    -0.00   0.00   0.00
  51   7     0.00  -0.00  -0.00     0.02  -0.03  -0.03     0.00  -0.00  -0.00
  52   1    -0.00   0.00   0.00    -0.05   0.13   0.10    -0.00   0.00   0.00
  53   1    -0.00  -0.00   0.00    -0.04  -0.01   0.04    -0.00  -0.00   0.00
