      -----------------------------------------------------------      
     |                   =====================                   |     
     |                           x T B                           |     
     |                   =====================                   |     
     |                         S. Grimme                         |     
     |          Mulliken Center for Theoretical Chemistry        |     
     |                    University of Bonn                     |     
      -----------------------------------------------------------      

   * xtb version 6.6.1 (unknown-commit) compiled by '@Linux' on 12/27/2023

   xtb is free software: you can redistribute it and/or modify it under
   the terms of the GNU Lesser General Public License as published by
   the Free Software Foundation, either version 3 of the License, or
   (at your option) any later version.
   
   xtb is distributed in the hope that it will be useful,
   but WITHOUT ANY WARRANTY; without even the implied warranty of
   MERCHANTABILITY or FITNESS FOR A PARTICULAR PURPOSE.  See the
   GNU Lesser General Public License for more details.
   
   Cite this work as:
   * C. Bannwarth, E. Caldeweyher, S. Ehlert, A. Hansen, P. Pracht,
     J. Seibert, S. Spicher, S. Grimme, WIREs Comput. Mol. Sci., 2020, 11,
     e01493. DOI: 10.1002/wcms.1493
   
   for GFN2-xTB:
   * C. Bannwarth, S. Ehlert and S. Grimme., J. Chem. Theory Comput., 2019,
     15, 1652-1671. DOI: 10.1021/acs.jctc.8b01176
   for GFN1-xTB:
   * S. Grimme, C. Bannwarth, P. Shushkov, J. Chem. Theory Comput., 2017,
     13, 1989-2009. DOI: 10.1021/acs.jctc.7b00118
   for GFN0-xTB:
   * P. Pracht, E. Caldeweyher, S. Ehlert, S. Grimme, ChemRxiv, 2019, preprint.
     DOI: 10.26434/chemrxiv.8326202.v1
   for GFN-FF:
   * S. Spicher and S. Grimme, Angew. Chem. Int. Ed., 2020, 59, 15665-15673.
     DOI: 10.1002/anie.202004239
   
   for ALPB and GBSA implicit solvation:
   * S. Ehlert, M. Stahn, S. Spicher, S. Grimme, J. Chem. Theory Comput.,
     2021, 17, 4250-4261. DOI: 10.1021/acs.jctc.1c00471
   
   for DFT-D4:
   * E. Caldeweyher, C. Bannwarth and S. Grimme, J. Chem. Phys., 2017,
     147, 034112. DOI: 10.1063/1.4993215
   * E. Caldeweyher, S. Ehlert, A. Hansen, H. Neugebauer, S. Spicher,
     C. Bannwarth and S. Grimme, J. Chem. Phys., 2019, 150, 154122.
     DOI: 10.1063/1.5090222
   * E. Caldeweyher, J.-M. Mewes, S. Ehlert and S. Grimme, Phys. Chem. Chem. Phys.
     2020, 22, 8499-8512. DOI: 10.1039/D0CP00502A
   
   for sTDA-xTB:
   * S. Grimme and C. Bannwarth, J. Chem. Phys., 2016, 145, 054103.
     DOI: 10.1063/1.4959605
   
   in the mass-spec context:
   * V. Asgeirsson, C. Bauer and S. Grimme, Chem. Sci., 2017, 8, 4879.
     DOI: 10.1039/c7sc00601b
   * J. Koopman and S. Grimme, ACS Omega 2019, 4, 12, 15120-15133.
     DOI: 10.1021/acsomega.9b02011
   
   for metadynamics refer to:
   * S. Grimme, J. Chem. Theory Comput., 2019, 155, 2847-2862
     DOI: 10.1021/acs.jctc.9b00143
   
   for SPH calculations refer to:
   * S. Spicher and S. Grimme, J. Chem. Theory Comput., 2021, 17, 1701-1714
     DOI: 10.1021/acs.jctc.0c01306
   
   with help from (in alphabetical order)
   P. Atkinson, C. Bannwarth, F. Bohle, G. Brandenburg, E. Caldeweyher
   M. Checinski, S. Dohm, S. Ehlert, S. Ehrlich, I. Gerasimov, C. Hölzer
   A. Katbashev, J. Koopman, C. Lavigne, S. Lehtola, F. März, M. Müller,
   F. Musil, H. Neugebauer, J. Pisarek, C. Plett, P. Pracht, F. Pultar,
   J. Seibert, P. Shushkov, S. Spicher, M. Stahn, M. Steiner, T. Strunk,
   J. Stückrath, T. Rose, and J. Unsleber
   
 * started run on 2024/01/10 at 15:43:03.578     

           -------------------------------------------------
          |                Calculation Setup                |
           -------------------------------------------------

          program call               : xtb struc.xyz --gfn2 --hess
          hostname                   : swaroop
          coordinate file            : struc.xyz
          omp threads                :                     1

   ID    Z sym.   atoms
    1    8 O      1, 23, 31, 39, 47
    2    6 C      2, 5, 9, 13, 17, 22, 30, 38, 46
    3    1 H      3, 4, 6, 7, 10-12, 14-16, 18-21, 25, 26, 28, 29, 33, 34,
                  36, 37, 41, 42, 44, 45, 49, 50, 52, 53
    4    7 N      8, 24, 27, 32, 35, 40, 43, 48, 51

molecular fragmentation (1/2 indicates fragments):
11111111111111111111122222222222222222222222222222222
# atoms in fragment 1/2:    21    32
 fragment masses (1/2) :      104.17      240.22
CMA distance (Bohr)    :   7.882
constraining FC (au)   :  0.0500

           -------------------------------------------------
          |                 G F N 2 - x T B                 |
           -------------------------------------------------

        Reference                      10.1021/acs.jctc.8b01176
      * Hamiltonian:
        H0-scaling (s, p, d)           1.850000    2.230000    2.230000
        zeta-weighting                 0.500000
      * Dispersion:
        s8                             2.700000
        a1                             0.520000
        a2                             5.000000
        s9                             5.000000
      * Repulsion:
        kExp                           1.500000    1.000000
        rExp                           1.000000
      * Coulomb:
        alpha                          2.000000
        third order                    shell-resolved
        anisotropic                    true
        a3                             3.000000
        a5                             4.000000
        cn-shift                       1.200000
        cn-exp                         4.000000
        max-rad                        5.000000


          ...................................................
          :                      SETUP                      :
          :.................................................:
          :  # basis functions                 122          :
          :  # atomic orbitals                 122          :
          :  # shells                           76          :
          :  # electrons                       140          :
          :  max. iterations                   250          :
          :  Hamiltonian                  GFN2-xTB          :
          :  restarted?                      false          :
          :  GBSA solvation                  false          :
          :  PC potential                    false          :
          :  electronic temp.          300.0000000     K    :
          :  accuracy                    1.0000000          :
          :  -> integral cutoff          0.2500000E+02      :
          :  -> integral neglect         0.1000000E-07      :
          :  -> SCF convergence          0.1000000E-05 Eh   :
          :  -> wf. convergence          0.1000000E-03 e    :
          :  Broyden damping             0.4000000          :
          ...................................................

 iter      E             dE          RMSdq      gap      omega  full diag
   1    -81.5452138 -0.815452E+02  0.430E+00    5.11       0.0  T
   2    -81.8383838 -0.293170E+00  0.232E+00    5.93       1.0  T
   3    -81.8440864 -0.570259E-02  0.114E+00    5.68       1.0  T
   4    -81.8454629 -0.137656E-02  0.240E-01    5.77       1.0  T
   5    -81.8463604 -0.897464E-03  0.913E-02    5.67       1.0  T
   6    -81.8463843 -0.239571E-04  0.253E-02    5.68       1.0  T
   7    -81.8463893 -0.492503E-05  0.729E-03    5.67       1.9  T
   8    -81.8463895 -0.237167E-06  0.257E-03    5.67       5.3  T
   9    -81.8463895 -0.234864E-07  0.890E-04    5.67      15.4  T
  10    -81.8463895 -0.710267E-08  0.186E-04    5.67      73.8  T

   *** convergence criteria satisfied after 10 iterations ***

         #    Occupation            Energy/Eh            Energy/eV
      -------------------------------------------------------------
         1        2.0000           -0.7915236             -21.5385
       ...           ...                  ...                  ...
        64        2.0000           -0.4872751             -13.2594
        65        2.0000           -0.4863519             -13.2343
        66        2.0000           -0.4832690             -13.1504
        67        2.0000           -0.4827505             -13.1363
        68        2.0000           -0.4802278             -13.0677
        69        2.0000           -0.4772229             -12.9859
        70        2.0000           -0.4755816             -12.9412 (HOMO)
        71                         -0.2672174              -7.2714 (LUMO)
        72                         -0.2546073              -6.9282
        73                         -0.2502511              -6.8097
        74                         -0.2501230              -6.8062
        75                         -0.1474146              -4.0114
       ...                                ...                  ...
       122                          0.5760294              15.6746
      -------------------------------------------------------------
                  HL-Gap            0.2083642 Eh            5.6699 eV
             Fermi-level           -0.3713995 Eh          -10.1063 eV

 SCC (total)                   0 d,  0 h,  0 min,  0.081 sec
 SCC setup                      ...        0 min,  0.000 sec (  0.366%)
 Dispersion                     ...        0 min,  0.001 sec (  0.727%)
 classical contributions        ...        0 min,  0.000 sec (  0.224%)
 integral evaluation            ...        0 min,  0.008 sec (  9.693%)
 iterations                     ...        0 min,  0.045 sec ( 55.826%)
 molecular gradient             ...        0 min,  0.027 sec ( 32.841%)
 printout                       ...        0 min,  0.000 sec (  0.309%)

         :::::::::::::::::::::::::::::::::::::::::::::::::::::
         ::                     SUMMARY                     ::
         :::::::::::::::::::::::::::::::::::::::::::::::::::::
         :: total energy             -80.931616115583 Eh    ::
         :: gradient norm              0.000050865160 Eh/a0 ::
         :: HOMO-LUMO gap              5.669879066692 eV    ::
         ::.................................................::
         :: SCC energy               -81.846389541592 Eh    ::
         :: -> isotropic ES            0.291717436709 Eh    ::
         :: -> anisotropic ES         -0.029276977471 Eh    ::
         :: -> anisotropic XC          0.020963826832 Eh    ::
         :: -> dispersion             -0.040112340490 Eh    ::
         :: repulsion energy           0.914403329119 Eh    ::
         :: add. restraining           0.000000000000 Eh    ::
         :: total charge               1.000000000000 e     ::
         :::::::::::::::::::::::::::::::::::::::::::::::::::::

           ------------------------------------------------- 
          |                Numerical Hessian                |
           ------------------------------------------------- 
step length          :   0.00500
SCC accuracy         :   0.30000
Hessian scale factor :   1.00000
frozen atoms in %    :   0.00000    0
RMS gradient         :   0.00005
estimated CPU  time      0.23 min
estimated wall time      0.23 min

writing file <hessian>.

 projected vibrational frequencies (cm⁻¹)
eigval :       -0.00    -0.00    -0.00     0.00     0.00     0.00
eigval :        8.84    10.00    12.07    18.13    23.00    29.64
eigval :       31.83    37.63    40.31    44.75    48.99    54.68
eigval :       64.78    73.62    77.93    83.52    94.51   104.18
eigval :      112.57   118.90   124.76   136.76   146.10   150.93
eigval :      184.67   243.82   247.80   254.46   278.92   281.62
eigval :      292.47   301.64   305.09   322.95   348.16   356.39
eigval :      368.48   388.92   419.70   436.47   439.08   445.04
eigval :      457.64   463.78   466.66   470.58   475.49   480.71
eigval :      484.44   500.34   506.45   533.15   539.77   542.68
eigval :      545.13   564.50   581.87   634.42   637.38   670.90
eigval :      674.83   676.61   679.23   719.14   762.86   807.97
eigval :      911.19   932.20   950.63   964.77   971.85   989.98
eigval :      996.82   997.16  1009.76  1012.61  1015.16  1024.56
eigval :     1026.18  1036.20  1038.88  1083.64  1086.28  1091.36
eigval :     1098.12  1104.94  1111.47  1129.40  1171.33  1226.68
eigval :     1250.23  1274.89  1314.72  1336.71  1343.40  1354.38
eigval :     1355.43  1361.15  1366.38  1384.93  1401.71  1413.92
eigval :     1423.71  1436.13  1444.43  1446.11  1446.98  1455.46
eigval :     1457.45  1458.95  1460.36  1462.31  1474.29  1475.10
eigval :     1485.10  1496.91  1498.53  1502.04  1528.19  1669.53
eigval :     1713.03  1723.06  1724.65  2892.16  2952.82  2991.31
eigval :     2994.87  3020.68  3032.02  3042.43  3043.69  3045.79
eigval :     3047.69  3051.89  3052.65  3057.69  3067.66  3260.37
eigval :     3381.47  3392.92  3434.51  3496.06  3496.93  3496.96
eigval :     3499.93  3523.31  3535.30  3541.87  3557.45  3559.11
eigval :     3561.89  3562.52  3564.71
           -------------------------------------------------
          |                Property Printout                |
           -------------------------------------------------

    * Orbital Energies and Occupations

         #    Occupation            Energy/Eh            Energy/eV
      -------------------------------------------------------------
         1        2.0000           -0.7915231             -21.5384
       ...           ...                  ...                  ...
        58        2.0000           -0.5054711             -13.7546
        59        2.0000           -0.5009171             -13.6306
        60        2.0000           -0.4978123             -13.5462
        61        2.0000           -0.4957669             -13.4905
        62        2.0000           -0.4941868             -13.4475
        63        2.0000           -0.4881180             -13.2824
        64        2.0000           -0.4872767             -13.2595
        65        2.0000           -0.4863522             -13.2343
        66        2.0000           -0.4832687             -13.1504
        67        2.0000           -0.4827526             -13.1364
        68        2.0000           -0.4802286             -13.0677
        69        2.0000           -0.4772241             -12.9859
        70        2.0000           -0.4755831             -12.9413 (HOMO)
        71                         -0.2672198              -7.2714 (LUMO)
        72                         -0.2546056              -6.9282
        73                         -0.2502534              -6.8097
        74                         -0.2501264              -6.8063
        75                         -0.1474140              -4.0113
        76                         -0.0980555              -2.6682
        77                         -0.0846376              -2.3031
        78                         -0.0817539              -2.2246
        79                         -0.0772626              -2.1024
        80                         -0.0673784              -1.8335
        81                         -0.0658209              -1.7911
       ...                                ...                  ...
       122                          0.5760288              15.6745
      -------------------------------------------------------------
                  HL-Gap            0.2083633 Eh            5.6699 eV
             Fermi-level           -0.3714015 Eh          -10.1063 eV

     #   Z          covCN         q      C6AA      α(0)
     1   8 O        1.652    -0.484    22.548     6.410
     2   6 C        3.673     0.067    19.679     6.358
     3   1 H        0.924     0.080     1.979     2.200
     4   1 H        0.923     0.037     2.491     2.468
     5   6 C        3.767    -0.062    21.730     6.644
     6   1 H        0.924     0.130     1.537     1.939
     7   1 H        0.924     0.068     2.109     2.271
     8   7 N        3.623     0.155    18.622     6.409
     9   6 C        3.732    -0.110    22.694     6.800
    10   1 H        0.925     0.136     1.494     1.911
    11   1 H        0.925     0.079     1.985     2.203
    12   1 H        0.925     0.083     1.945     2.181
    13   6 C        3.720    -0.112    22.769     6.815
    14   1 H        0.925     0.085     1.927     2.171
    15   1 H        0.925     0.079     1.993     2.208
    16   1 H        0.925     0.141     1.453     1.885
    17   6 C        3.726    -0.110    22.715     6.805
    18   1 H        0.925     0.121     1.609     1.984
    19   1 H        0.925     0.079     1.987     2.204
    20   1 H        0.925     0.124     1.585     1.969
    21   1 H        0.801     0.338     0.618     1.235
    22   6 C        2.675     0.347    21.105     7.517
    23   8 O        0.860    -0.513    24.067     6.577
    24   7 N        2.645    -0.288    27.425     7.778
    25   1 H        0.860     0.201     1.101     1.643
    26   1 H        0.861     0.187     1.172     1.696
    27   7 N        2.645    -0.289    27.451     7.781
    28   1 H        0.861     0.187     1.173     1.696
    29   1 H        0.860     0.200     1.104     1.646
    30   6 C        2.675     0.340    21.225     7.539
    31   8 O        0.860    -0.536    24.598     6.650
    32   7 N        2.650    -0.295    27.611     7.804
    33   1 H        0.860     0.200     1.106     1.647
    34   1 H        0.860     0.223     0.997     1.564
    35   7 N        2.650    -0.293    27.547     7.795
    36   1 H        0.860     0.226     0.984     1.554
    37   1 H        0.861     0.192     1.145     1.676
    38   6 C        2.675     0.344    21.149     7.525
    39   8 O        0.860    -0.522    24.283     6.607
    40   7 N        2.644    -0.294    27.575     7.799
    41   1 H        0.860     0.198     1.115     1.654
    42   1 H        0.861     0.180     1.213     1.725
    43   7 N        2.644    -0.309    27.951     7.852
    44   1 H        0.861     0.174     1.248     1.750
    45   1 H        0.860     0.228     0.973     1.545
    46   6 C        2.675     0.345    21.144     7.525
    47   8 O        0.860    -0.533    24.525     6.640
    48   7 N        2.645    -0.298    27.674     7.813
    49   1 H        0.860     0.193     1.144     1.675
    50   1 H        0.861     0.179     1.222     1.732
    51   7 N        2.644    -0.311    28.006     7.860
    52   1 H        0.860     0.171     1.265     1.762
    53   1 H        0.860     0.240     0.924     1.505

 Mol. C6AA /au·bohr⁶  :      21801.223323
 Mol. C8AA /au·bohr⁸  :     454308.154290
 Mol. α(0) /au        :        220.602731


Wiberg/Mayer (AO) data.
largest (>0.10) Wiberg bond orders for each atom

 ---------------------------------------------------------------------------
     #   Z sym  total        # sym  WBO       # sym  WBO       # sym  WBO
 ---------------------------------------------------------------------------
     1   8 O    1.955 --     2 C    1.017    21 H    0.794
     2   6 C    3.962 --     1 O    1.017     5 C    0.993     4 H    0.965
                             3 H    0.956
     3   1 H    0.993 --     2 C    0.956
     4   1 H    0.998 --     2 C    0.965
     5   6 C    3.929 --     2 C    0.993     7 H    0.971     6 H    0.947
                             8 N    0.933
     6   1 H    0.983 --     5 C    0.947
     7   1 H    0.995 --     5 C    0.971
     8   7 N    3.821 --    13 C    0.959     9 C    0.958    17 C    0.953
                             5 C    0.933
     9   6 C    3.925 --    11 H    0.979    12 H    0.977     8 N    0.958
                            10 H    0.953
    10   1 H    0.982 --     9 C    0.953
    11   1 H    0.994 --     9 C    0.979
    12   1 H    0.993 --     9 C    0.977
    13   6 C    3.923 --    15 H    0.979    14 H    0.977     8 N    0.959
                            16 H    0.949
    14   1 H    0.993 --    13 C    0.977
    15   1 H    0.994 --    13 C    0.979
    16   1 H    0.980 --    13 C    0.949
    17   6 C    3.915 --    19 H    0.979    18 H    0.965    20 H    0.963
                             8 N    0.953
    18   1 H    0.985 --    17 C    0.965
    19   1 H    0.994 --    17 C    0.979
    20   1 H    0.985 --    17 C    0.963
    21   1 H    0.886 --     1 O    0.794
    22   6 C    3.959 --    23 O    1.535    24 N    1.209    27 N    1.207
    23   8 O    1.920 --    22 C    1.535    24 N    0.143    27 N    0.143
    24   7 N    3.323 --    22 C    1.209    26 H    0.946    25 H    0.943
                            23 O    0.143
    25   1 H    0.960 --    24 N    0.943
    26   1 H    0.965 --    24 N    0.946
    27   7 N    3.321 --    22 C    1.207    28 H    0.946    29 H    0.943
                            23 O    0.143
    28   1 H    0.965 --    27 N    0.946
    29   1 H    0.960 --    27 N    0.943
    30   6 C    3.960 --    31 O    1.456    35 N    1.250    32 N    1.248
    31   8 O    1.924 --    30 C    1.456    32 N    0.133    35 N    0.133
    32   7 N    3.346 --    30 C    1.248    33 H    0.939    34 H    0.913
                            31 O    0.133
    33   1 H    0.960 --    32 N    0.939
    34   1 H    0.950 --    32 N    0.913
    35   7 N    3.348 --    30 C    1.250    37 H    0.945    36 H    0.906
                            31 O    0.133
    36   1 H    0.949 --    35 N    0.906
    37   1 H    0.963 --    35 N    0.945
    38   6 C    3.959 --    39 O    1.539    43 N    1.216    40 N    1.197
    39   8 O    1.900 --    38 C    1.539    43 N    0.147    40 N    0.140
    40   7 N    3.312 --    38 C    1.197    42 H    0.948    41 H    0.944
                            39 O    0.140
    41   1 H    0.961 --    40 N    0.944
    42   1 H    0.967 --    40 N    0.948
    43   7 N    3.315 --    38 C    1.216    44 H    0.950    45 H    0.902
                            39 O    0.147
    44   1 H    0.970 --    43 N    0.950
    45   1 H    0.948 --    43 N    0.902
    46   6 C    3.959 --    47 O    1.523    51 N    1.238    48 N    1.189
    47   8 O    1.886 --    46 C    1.523    51 N    0.146    48 N    0.136
    48   7 N    3.303 --    46 C    1.189    50 H    0.949    49 H    0.946
                            47 O    0.136
    49   1 H    0.963 --    48 N    0.946
    50   1 H    0.968 --    48 N    0.949
    51   7 N    3.323 --    46 C    1.238    52 H    0.951    53 H    0.876
                            47 O    0.146
    52   1 H    0.970 --    51 N    0.951
    53   1 H    0.942 --    51 N    0.876
 ---------------------------------------------------------------------------

Topologies differ in total number of bonds
Writing topology from bond orders to xtbtopo.mol

molecular dipole:
                 x           y           z       tot (Debye)
 q only:        0.534       0.175      -0.250
   full:        1.037       1.006      -0.398       3.809
molecular quadrupole (traceless):
                xx          xy          yy          xz          yz          zz
 q only:        1.371      50.822      15.250      -7.388     -37.899     -16.621
  q+dip:        3.521      56.134      12.230      -6.145     -43.130     -15.751
   full:        3.255      55.362      12.774      -6.497     -42.732     -16.029

           -------------------------------------------------
          |               Frequency Printout                |
           -------------------------------------------------
 projected vibrational frequencies (cm⁻¹)
eigval :       -0.00    -0.00    -0.00     0.00     0.00     0.00
eigval :        8.84    10.00    12.07    18.13    23.00    29.64
eigval :       31.83    37.63    40.31    44.75    48.99    54.68
eigval :       64.78    73.62    77.93    83.52    94.51   104.18
eigval :      112.57   118.90   124.76   136.76   146.10   150.93
eigval :      184.67   243.82   247.80   254.46   278.92   281.62
eigval :      292.47   301.64   305.09   322.95   348.16   356.39
eigval :      368.48   388.92   419.70   436.47   439.08   445.04
eigval :      457.64   463.78   466.66   470.58   475.49   480.71
eigval :      484.44   500.34   506.45   533.15   539.77   542.68
eigval :      545.13   564.50   581.87   634.42   637.38   670.90
eigval :      674.83   676.61   679.23   719.14   762.86   807.97
eigval :      911.19   932.20   950.63   964.77   971.85   989.98
eigval :      996.82   997.16  1009.76  1012.61  1015.16  1024.56
eigval :     1026.18  1036.20  1038.88  1083.64  1086.28  1091.36
eigval :     1098.12  1104.94  1111.47  1129.40  1171.33  1226.68
eigval :     1250.23  1274.89  1314.72  1336.71  1343.40  1354.38
eigval :     1355.43  1361.15  1366.38  1384.93  1401.71  1413.92
eigval :     1423.71  1436.13  1444.43  1446.11  1446.98  1455.46
eigval :     1457.45  1458.95  1460.36  1462.31  1474.29  1475.10
eigval :     1485.10  1496.91  1498.53  1502.04  1528.19  1669.53
eigval :     1713.03  1723.06  1724.65  2892.16  2952.82  2991.31
eigval :     2994.87  3020.68  3032.02  3042.43  3043.69  3045.79
eigval :     3047.69  3051.89  3052.65  3057.69  3067.66  3260.37
eigval :     3381.47  3392.92  3434.51  3496.06  3496.93  3496.96
eigval :     3499.93  3523.31  3535.30  3541.87  3557.45  3559.11
eigval :     3561.89  3562.52  3564.71
 reduced masses (amu)
   1: 12.43   2: 12.56   3: 12.31   4: 12.41   5: 12.79   6: 12.75   7: 11.42   8: 11.28
   9: 12.43  10: 12.12  11: 12.47  12: 12.72  13: 12.15  14: 12.86  15: 13.18  16: 13.13
  17: 12.32  18: 12.39  19: 12.88  20: 13.76  21: 12.94  22: 12.92  23: 11.85  24: 13.13
  25: 11.48  26: 12.13  27: 12.42  28: 11.34  29: 11.56  30: 10.49  31: 12.57  32:  4.08
  33:  3.46  34:  3.59  35:  3.42  36: 10.63  37:  5.18  38:  3.00  39:  5.76  40:  2.09
  41:  7.98  42:  3.76  43:  7.92  44:  3.29  45:  3.13  46:  8.64  47:  2.36  48:  1.69
  49:  8.52  50:  4.90  51:  7.02  52:  5.95  53:  8.00  54:  3.79  55:  8.22  56:  3.33
  57:  9.17  58:  9.57  59: 10.94  60: 10.04  61: 10.03  62: 11.86  63:  1.09  64:  3.81
  65:  2.05  66: 11.58  67: 11.58  68: 11.74  69:  9.95  70:  2.89  71:  9.37  72:  1.89
  73:  7.91  74:  7.37  75:  5.16  76:  5.07  77:  4.95  78:  5.08  79:  7.59  80:  8.85
  81:  9.51  82:  7.58  83:  9.33  84:  6.96  85:  7.82  86:  7.72  87:  2.95  88:  9.56
  89:  7.86  90:  8.32  91:  8.09  92:  4.53  93:  9.18  94:  7.43  95:  3.12  96:  5.74
  97:  6.58  98:  7.95  99:  6.17 100:  3.29 101:  3.93 102:  6.01 103:  5.42 104:  4.71
 105:  5.72 106:  3.25 107:  2.45 108:  2.48 109:  2.13 110:  2.24 111:  3.04 112:  1.66
 113:  1.83 114:  1.82 115:  3.09 116:  2.26 117:  2.59 118:  2.94 119:  1.68 120:  1.59
 121:  1.63 122:  8.10 123:  7.79 124:  7.94 125: 10.23 126: 12.61 127: 12.76 128: 12.80
 129: 12.78 130:  1.74 131:  1.74 132:  1.72 133:  1.76 134:  1.91 135:  1.70 136:  1.85
 137:  1.60 138:  1.75 139:  1.68 140:  1.61 141:  1.93 142:  1.69 143:  1.76 144:  1.76
 145:  1.67 146:  1.64 147:  1.58 148:  1.44 149:  1.45 150:  1.45 151:  1.46 152:  1.92
 153:  1.99 154:  2.08 155:  2.02 156:  2.19 157:  2.18 158:  2.18 159:  2.18
 IR intensities (km·mol⁻¹)
   1:  1.45   2:  1.45   3:  0.19   4:  1.35   5:  1.51   6:  2.85   7:  0.56   8:  0.37
   9:  1.43  10:  2.65  11:  0.74  12:  1.48  13:  1.83  14:  7.01  15:  0.05  16:  1.08
  17:  2.93  18:  3.47  19:  9.15  20:  3.63  21:  3.47  22:  0.27  23: 14.56  24: 17.00
  25: 17.45  26:  3.34  27: 13.93  28: 21.72  29:  1.56  30: 16.21  31: 12.53  32:  4.57
  33:  3.90  34: 15.61  35:112.51  36: 10.75  37: 10.80  38:172.85  39:  6.53  40:  2.47
  41:  5.68  42:354.77  43:  2.39  44:219.26  45:147.53  46:  1.71  47:626.10  48:  5.58
  49:  3.95  50:  5.16  51: 35.70  52: 11.96  53:  1.65  54: 16.77  55: 19.27  56: 85.82
  57: 74.50  58: 55.52  59: 17.33  60: 20.04  61:  0.39  62: 39.37  63:  2.26  64: 60.86
  65:119.67  66: 38.66  67: 19.51  68: 57.08  69: 84.53  70:197.16  71:  4.43  72:332.82
  73:  2.28  74:  8.47  75:  1.69  76:  2.40  77:  0.14  78: 10.67  79: 26.36  80:  0.09
  81:  0.75  82: 26.43  83: 18.38  84: 17.46  85: 20.51  86:  8.20  87:  0.83  88:  0.69
  89: 30.42  90:  2.12  91:  2.05  92: 23.19  93:  0.62  94: 24.16  95: 34.29  96:  2.19
  97:  7.67  98:  5.79  99:  1.48 100:  3.08 101: 48.47 102: 61.25 103:120.11 104: 48.44
 105:157.27 106:107.66 107: 34.90 108:  5.08 109:  8.90 110: 22.08 111: 31.47 112:  0.53
 113:  4.53 114:  8.21 115:  8.73 116: 22.97 117: 11.35 118:  1.20 119: 20.79 120: 26.41
 121: 46.38 122:299.88 123:634.89 124:588.21 125:505.06 126:****** 127:691.44 128:******
 129:334.34 130: 36.17 131: 14.61 132: 55.44 133: 21.86 134:****** 135:195.31 136:  9.75
 137: 16.89 138:  4.89 139: 33.61 140: 37.74 141: 19.46 142: 30.69 143: 55.61 144:******
 145:314.72 146:112.04 147:341.09 148: 39.88 149: 10.71 150: 21.58 151:  4.34 152: 11.47
 153: 19.74 154: 69.58 155: 45.68 156: 15.93 157:  6.66 158: 12.16 159: 18.55
 Raman intensities (amu)
Molecule has no symmetry elements
It seems to be the C1 point group
   1:  0.00   2:  0.00   3:  0.00   4:  0.00   5:  0.00   6:  0.00   7:  0.00   8:  0.00
   9:  0.00  10:  0.00  11:  0.00  12:  0.00  13:  0.00  14:  0.00  15:  0.00  16:  0.00
  17:  0.00  18:  0.00  19:  0.00  20:  0.00  21:  0.00  22:  0.00  23:  0.00  24:  0.00
  25:  0.00  26:  0.00  27:  0.00  28:  0.00  29:  0.00  30:  0.00  31:  0.00  32:  0.00
  33:  0.00  34:  0.00  35:  0.00  36:  0.00  37:  0.00  38:  0.00  39:  0.00  40:  0.00
  41:  0.00  42:  0.00  43:  0.00  44:  0.00  45:  0.00  46:  0.00  47:  0.00  48:  0.00
  49:  0.00  50:  0.00  51:  0.00  52:  0.00  53:  0.00  54:  0.00  55:  0.00  56:  0.00
  57:  0.00  58:  0.00  59:  0.00  60:  0.00  61:  0.00  62:  0.00  63:  0.00  64:  0.00
  65:  0.00  66:  0.00  67:  0.00  68:  0.00  69:  0.00  70:  0.00  71:  0.00  72:  0.00
  73:  0.00  74:  0.00  75:  0.00  76:  0.00  77:  0.00  78:  0.00  79:  0.00  80:  0.00
  81:  0.00  82:  0.00  83:  0.00  84:  0.00  85:  0.00  86:  0.00  87:  0.00  88:  0.00
  89:  0.00  90:  0.00  91:  0.00  92:  0.00  93:  0.00  94:  0.00  95:  0.00  96:  0.00
  97:  0.00  98:  0.00  99:  0.00 100:  0.00 101:  0.00 102:  0.00 103:  0.00 104:  0.00
 105:  0.00 106:  0.00 107:  0.00 108:  0.00 109:  0.00 110:  0.00 111:  0.00 112:  0.00
 113:  0.00 114:  0.00 115:  0.00 116:  0.00 117:  0.00 118:  0.00 119:  0.00 120:  0.00
 121:  0.00 122:  0.00 123:  0.00 124:  0.00 125:  0.00 126:  0.00 127:  0.00 128:  0.00
 129:  0.00 130:  0.00 131:  0.00 132:  0.00 133:  0.00 134:  0.00 135:  0.00 136:  0.00
 137:  0.00 138:  0.00 139:  0.00 140:  0.00 141:  0.00 142:  0.00 143:  0.00 144:  0.00
 145:  0.00 146:  0.00 147:  0.00 148:  0.00 149:  0.00 150:  0.00 151:  0.00 152:  0.00
 153:  0.00 154:  0.00 155:  0.00 156:  0.00 157:  0.00 158:  0.00 159:  0.00
 output can be read by thermo (or use thermo option).
 writing <g98.out> molden fake output.
 recommended (thermochemical) frequency scaling factor: 1.0
           -------------------------------------------------
          |             Thermodynamic Functions             |
           -------------------------------------------------

c1  symmetry found (for desy threshold:  0.10E+00) used in thermo

          ...................................................
          :                      SETUP                      :
          :.................................................:
          :  # frequencies                         153      :
          :  # imaginary freq.                       0      :
          :  linear?                             false      :
          :  only rotor calc.                    false      :
          :  symmetry                               c1      :
          :  rotational number                       1      :
          :  scaling factor                  1.0000000      :
          :  rotor cutoff                   50.0000000 cm⁻¹ :
          :  imag. cutoff                  -20.0000000 cm⁻¹ :
          :.................................................:

    mode    ω/cm⁻¹     T·S(HO)/kcal·mol⁻¹    T·S(FR)/kcal·mol⁻¹   T·S(vib)
   ------------------------------------------------------------------------
       1      8.84    -2.46153 (  0.10%)    -1.56974 ( 99.90%)    -1.57061
       2     10.00    -2.38833 (  0.16%)    -1.53315 ( 99.84%)    -1.53452
       3     12.07    -2.27683 (  0.34%)    -1.47740 ( 99.66%)    -1.48011
       4     18.13    -2.03624 (  1.70%)    -1.35708 ( 98.30%)    -1.36862
       5     23.00    -1.89516 (  4.29%)    -1.28650 ( 95.71%)    -1.31260
       6     29.64    -1.74524 ( 10.99%)    -1.21145 ( 89.01%)    -1.27010
       7     31.83    -1.70299 ( 14.11%)    -1.19029 ( 85.89%)    -1.26263
       8     37.63    -1.60408 ( 24.29%)    -1.14072 ( 75.71%)    -1.25327
       9     40.31    -1.56339 ( 29.70%)    -1.12032 ( 70.30%)    -1.25193
      10     44.75    -1.50177 ( 39.08%)    -1.08940 ( 60.92%)    -1.25056
      11     48.99    -1.44838 ( 47.95%)    -1.06260 ( 52.05%)    -1.24759
      12     54.68    -1.38358 ( 58.85%)    -1.03003 ( 41.15%)    -1.23810
      13     64.78    -1.28384 ( 73.81%)    -0.97982 ( 26.19%)    -1.20420
      14     73.62    -1.20873 ( 82.46%)    -0.94191 ( 17.54%)    -1.16192
      15     77.93    -1.17540 ( 85.51%)    -0.92506 ( 14.49%)    -1.13912
      16     83.52    -1.13485 ( 88.62%)    -0.90453 ( 11.38%)    -1.10864
      17     94.51    -1.06275 ( 92.74%)    -0.86793 (  7.26%)    -1.04859
      18    104.18    -1.00610 ( 94.96%)    -0.83906 (  5.04%)    -0.99768
      19    112.57    -0.96126 ( 96.25%)    -0.81612 (  3.75%)    -0.95582
      20    118.90    -0.92969 ( 96.97%)    -0.79992 (  3.03%)    -0.92576
      21    124.76    -0.90198 ( 97.49%)    -0.78566 (  2.51%)    -0.89905
      22    136.76    -0.84933 ( 98.24%)    -0.75846 (  1.76%)    -0.84773
      23    146.10    -0.81169 ( 98.65%)    -0.73889 (  1.35%)    -0.81070
      24    150.93    -0.79322 ( 98.81%)    -0.72926 (  1.19%)    -0.79246
      25    184.67    -0.67998 ( 99.47%)    -0.66949 (  0.53%)    -0.67992
      26    243.82    -0.52917 ( 99.82%)    -0.58718 (  0.18%)    -0.52927
      27    247.80    -0.52061 ( 99.83%)    -0.58238 (  0.17%)    -0.52072
      28    254.46    -0.50670 ( 99.85%)    -0.57453 (  0.15%)    -0.50680
      29    278.92    -0.45923 ( 99.90%)    -0.54733 (  0.10%)    -0.45932
      30    281.62    -0.45433 ( 99.90%)    -0.54449 (  0.10%)    -0.45442
      31    292.47    -0.43518 ( 99.91%)    -0.53328 (  0.09%)    -0.43527
   ------------------------------------------------------------------------

   temp. (K)  partition function   enthalpy   heat capacity  entropy
                                   cal/mol     cal/K/mol   cal/K/mol   J/K/mol
 298.15  VIB  0.953E+19            19848.408    102.910    132.646
         ROT  0.213E+08              888.752      2.981     36.516
         INT  0.203E+27            20737.161    105.891    169.163
         TR   0.618E+28             1481.254      4.968     43.384
         TOT                       22218.4146   110.8591   212.5472   889.2974

       T/K    H(0)-H(T)+PV         H(T)/Eh          T*S/Eh         G(T)/Eh
   ------------------------------------------------------------------------
    298.15    0.354073E-01    0.474002E+00    0.100988E+00    0.373014E+00
   ------------------------------------------------------------------------

         :::::::::::::::::::::::::::::::::::::::::::::::::::::
         ::                  THERMODYNAMIC                  ::
         :::::::::::::::::::::::::::::::::::::::::::::::::::::
         :: total free energy         -80.558602496214 Eh   ::
         ::.................................................::
         :: total energy              -80.931616115946 Eh   ::
         :: zero point energy           0.438594342329 Eh   ::
         :: G(RRHO) w/o ZPVE           -0.065580722597 Eh   ::
         :: G(RRHO) contrib.            0.373013619732 Eh   ::
         :::::::::::::::::::::::::::::::::::::::::::::::::::::

           -------------------------------------------------
          | TOTAL ENERGY              -80.931616115946 Eh   |
          | TOTAL ENTHALPY            -80.457614476225 Eh   |
          | TOTAL FREE ENERGY         -80.558602496214 Eh   |
          | GRADIENT NORM               0.000050997150 Eh/α |
          | HOMO-LUMO GAP               5.669853373124 eV   |
           -------------------------------------------------

------------------------------------------------------------------------
 * finished run on 2024/01/10 at 15:43:17.182     
------------------------------------------------------------------------
 total:
 * wall-time:     0 d,  0 h,  0 min, 13.604 sec
 *  cpu-time:     0 d,  0 h,  0 min, 13.555 sec
 * ratio c/w:     0.996 speedup
 SCF:
 * wall-time:     0 d,  0 h,  0 min,  0.081 sec
 *  cpu-time:     0 d,  0 h,  0 min,  0.056 sec
 * ratio c/w:     0.694 speedup
 analytical hessian:
 * wall-time:     0 d,  0 h,  0 min, 13.498 sec
 *  cpu-time:     0 d,  0 h,  0 min, 13.474 sec
 * ratio c/w:     0.998 speedup

