      -----------------------------------------------------------      
     |                   =====================                   |     
     |                           x T B                           |     
     |                   =====================                   |     
     |                         S. Grimme                         |     
     |          Mulliken Center for Theoretical Chemistry        |     
     |                    University of Bonn                     |     
      -----------------------------------------------------------      

   * xtb version 6.6.1 (unknown-commit) compiled by '@Linux' on 12/27/2023

   xtb is free software: you can redistribute it and/or modify it under
   the terms of the GNU Lesser General Public License as published by
   the Free Software Foundation, either version 3 of the License, or
   (at your option) any later version.
   
   xtb is distributed in the hope that it will be useful,
   but WITHOUT ANY WARRANTY; without even the implied warranty of
   MERCHANTABILITY or FITNESS FOR A PARTICULAR PURPOSE.  See the
   GNU Lesser General Public License for more details.
   
   Cite this work as:
   * C. Bannwarth, E. Caldeweyher, S. Ehlert, A. Hansen, P. Pracht,
     J. Seibert, S. Spicher, S. Grimme, WIREs Comput. Mol. Sci., 2020, 11,
     e01493. DOI: 10.1002/wcms.1493
   
   for GFN2-xTB:
   * C. Bannwarth, S. Ehlert and S. Grimme., J. Chem. Theory Comput., 2019,
     15, 1652-1671. DOI: 10.1021/acs.jctc.8b01176
   for GFN1-xTB:
   * S. Grimme, C. Bannwarth, P. Shushkov, J. Chem. Theory Comput., 2017,
     13, 1989-2009. DOI: 10.1021/acs.jctc.7b00118
   for GFN0-xTB:
   * P. Pracht, E. Caldeweyher, S. Ehlert, S. Grimme, ChemRxiv, 2019, preprint.
     DOI: 10.26434/chemrxiv.8326202.v1
   for GFN-FF:
   * S. Spicher and S. Grimme, Angew. Chem. Int. Ed., 2020, 59, 15665-15673.
     DOI: 10.1002/anie.202004239
   
   for ALPB and GBSA implicit solvation:
   * S. Ehlert, M. Stahn, S. Spicher, S. Grimme, J. Chem. Theory Comput.,
     2021, 17, 4250-4261. DOI: 10.1021/acs.jctc.1c00471
   
   for DFT-D4:
   * E. Caldeweyher, C. Bannwarth and S. Grimme, J. Chem. Phys., 2017,
     147, 034112. DOI: 10.1063/1.4993215
   * E. Caldeweyher, S. Ehlert, A. Hansen, H. Neugebauer, S. Spicher,
     C. Bannwarth and S. Grimme, J. Chem. Phys., 2019, 150, 154122.
     DOI: 10.1063/1.5090222
   * E. Caldeweyher, J.-M. Mewes, S. Ehlert and S. Grimme, Phys. Chem. Chem. Phys.
     2020, 22, 8499-8512. DOI: 10.1039/D0CP00502A
   
   for sTDA-xTB:
   * S. Grimme and C. Bannwarth, J. Chem. Phys., 2016, 145, 054103.
     DOI: 10.1063/1.4959605
   
   in the mass-spec context:
   * V. Asgeirsson, C. Bauer and S. Grimme, Chem. Sci., 2017, 8, 4879.
     DOI: 10.1039/c7sc00601b
   * J. Koopman and S. Grimme, ACS Omega 2019, 4, 12, 15120-15133.
     DOI: 10.1021/acsomega.9b02011
   
   for metadynamics refer to:
   * S. Grimme, J. Chem. Theory Comput., 2019, 155, 2847-2862
     DOI: 10.1021/acs.jctc.9b00143
   
   for SPH calculations refer to:
   * S. Spicher and S. Grimme, J. Chem. Theory Comput., 2021, 17, 1701-1714
     DOI: 10.1021/acs.jctc.0c01306
   
   with help from (in alphabetical order)
   P. Atkinson, C. Bannwarth, F. Bohle, G. Brandenburg, E. Caldeweyher
   M. Checinski, S. Dohm, S. Ehlert, S. Ehrlich, I. Gerasimov, C. Hölzer
   A. Katbashev, J. Koopman, C. Lavigne, S. Lehtola, F. März, M. Müller,
   F. Musil, H. Neugebauer, J. Pisarek, C. Plett, P. Pracht, F. Pultar,
   J. Seibert, P. Shushkov, S. Spicher, M. Stahn, M. Steiner, T. Strunk,
   J. Stückrath, T. Rose, and J. Unsleber
   
 * started run on 2024/01/10 at 18:30:47.276     

           -------------------------------------------------
          |                Calculation Setup                |
           -------------------------------------------------

          program call               : xtb struc.xyz --gfn2 --hess
          hostname                   : swaroop
          coordinate file            : struc.xyz
          omp threads                :                     1

   ID    Z sym.   atoms
    1    8 O      1, 23, 31, 39, 47
    2    6 C      2, 5, 9, 13, 17, 22, 30, 38, 46
    3    1 H      3, 4, 6, 7, 10-12, 14-16, 18-21, 25, 26, 28, 29, 33, 34,
                  36, 37, 41, 42, 44, 45, 49, 50, 52, 53
    4    7 N      8, 24, 27, 32, 35, 40, 43, 48, 51

molecular fragmentation (1/2 indicates fragments):
11111111111111111111122222222222222222222222222222222
# atoms in fragment 1/2:    21    32
 fragment masses (1/2) :      104.17      240.22
CMA distance (Bohr)    :   6.901
constraining FC (au)   :  0.0500

           -------------------------------------------------
          |                 G F N 2 - x T B                 |
           -------------------------------------------------

        Reference                      10.1021/acs.jctc.8b01176
      * Hamiltonian:
        H0-scaling (s, p, d)           1.850000    2.230000    2.230000
        zeta-weighting                 0.500000
      * Dispersion:
        s8                             2.700000
        a1                             0.520000
        a2                             5.000000
        s9                             5.000000
      * Repulsion:
        kExp                           1.500000    1.000000
        rExp                           1.000000
      * Coulomb:
        alpha                          2.000000
        third order                    shell-resolved
        anisotropic                    true
        a3                             3.000000
        a5                             4.000000
        cn-shift                       1.200000
        cn-exp                         4.000000
        max-rad                        5.000000


          ...................................................
          :                      SETUP                      :
          :.................................................:
          :  # basis functions                 122          :
          :  # atomic orbitals                 122          :
          :  # shells                           76          :
          :  # electrons                       140          :
          :  max. iterations                   250          :
          :  Hamiltonian                  GFN2-xTB          :
          :  restarted?                      false          :
          :  GBSA solvation                  false          :
          :  PC potential                    false          :
          :  electronic temp.          300.0000000     K    :
          :  accuracy                    1.0000000          :
          :  -> integral cutoff          0.2500000E+02      :
          :  -> integral neglect         0.1000000E-07      :
          :  -> SCF convergence          0.1000000E-05 Eh   :
          :  -> wf. convergence          0.1000000E-03 e    :
          :  Broyden damping             0.4000000          :
          ...................................................

 iter      E             dE          RMSdq      gap      omega  full diag
   1    -81.5533891 -0.815534E+02  0.430E+00    5.11       0.0  T
   2    -81.8377821 -0.284393E+00  0.236E+00    6.09       1.0  T
   3    -81.8435542 -0.577207E-02  0.115E+00    5.91       1.0  T
   4    -81.8449284 -0.137421E-02  0.236E-01    5.98       1.0  T
   5    -81.8457818 -0.853405E-03  0.912E-02    5.91       1.0  T
   6    -81.8458060 -0.242500E-04  0.274E-02    5.93       1.0  T
   7    -81.8458105 -0.445117E-05  0.761E-03    5.92       1.8  T
   8    -81.8458108 -0.279126E-06  0.281E-03    5.92       4.9  T
   9    -81.8458108 -0.221433E-07  0.103E-03    5.92      13.4  T
  10    -81.8458108 -0.652690E-08  0.191E-04    5.92      71.8  T
  11    -81.8458108 -0.391722E-09  0.889E-05    5.92     154.6  T

   *** convergence criteria satisfied after 11 iterations ***

         #    Occupation            Energy/Eh            Energy/eV
      -------------------------------------------------------------
         1        2.0000           -0.7986314             -21.7319
       ...           ...                  ...                  ...
        64        2.0000           -0.5018770             -13.6568
        65        2.0000           -0.5013310             -13.6419
        66        2.0000           -0.4997448             -13.5987
        67        2.0000           -0.4991297             -13.5820
        68        2.0000           -0.4971949             -13.5294
        69        2.0000           -0.4957851             -13.4910
        70        2.0000           -0.4922367             -13.3944 (HOMO)
        71                         -0.2745939              -7.4721 (LUMO)
        72                         -0.2736728              -7.4470
        73                         -0.2713806              -7.3846
        74                         -0.2696155              -7.3366
        75                         -0.1555165              -4.2318
       ...                                ...                  ...
       122                          0.5519394              15.0190
      -------------------------------------------------------------
                  HL-Gap            0.2176428 Eh            5.9224 eV
             Fermi-level           -0.3834153 Eh          -10.4333 eV

 SCC (total)                   0 d,  0 h,  0 min,  0.107 sec
 SCC setup                      ...        0 min,  0.000 sec (  0.268%)
 Dispersion                     ...        0 min,  0.001 sec (  0.549%)
 classical contributions        ...        0 min,  0.000 sec (  0.169%)
 integral evaluation            ...        0 min,  0.008 sec (  7.846%)
 iterations                     ...        0 min,  0.068 sec ( 64.070%)
 molecular gradient             ...        0 min,  0.029 sec ( 26.832%)
 printout                       ...        0 min,  0.000 sec (  0.256%)

         :::::::::::::::::::::::::::::::::::::::::::::::::::::
         ::                     SUMMARY                     ::
         :::::::::::::::::::::::::::::::::::::::::::::::::::::
         :: total energy             -80.932761132464 Eh    ::
         :: gradient norm              0.000147304728 Eh/a0 ::
         :: HOMO-LUMO gap              5.922361942619 eV    ::
         ::.................................................::
         :: SCC energy               -81.845810805076 Eh    ::
         :: -> isotropic ES            0.292818621604 Eh    ::
         :: -> anisotropic ES         -0.026858325428 Eh    ::
         :: -> anisotropic XC          0.020346596678 Eh    ::
         :: -> dispersion             -0.047036936481 Eh    ::
         :: repulsion energy           0.910917541837 Eh    ::
         :: add. restraining           0.000000000000 Eh    ::
         :: total charge               1.000000000000 e     ::
         :::::::::::::::::::::::::::::::::::::::::::::::::::::

           ------------------------------------------------- 
          |                Numerical Hessian                |
           ------------------------------------------------- 
step length          :   0.00500
SCC accuracy         :   0.30000
Hessian scale factor :   1.00000
frozen atoms in %    :   0.00000    0
RMS gradient         :   0.00015
estimated CPU  time      0.25 min
estimated wall time      0.25 min

writing file <hessian>.

 projected vibrational frequencies (cm⁻¹)
eigval :       -0.00    -0.00     0.00     0.00     0.00     0.00
eigval :       18.17    19.73    23.28    35.89    37.92    39.63
eigval :       50.10    53.38    59.66    63.12    65.34    70.71
eigval :       77.01    89.68    93.37    97.73    99.05   117.86
eigval :      128.82   145.06   150.87   156.29   161.82   180.82
eigval :      195.35   209.30   224.30   250.16   268.23   279.19
eigval :      289.07   294.22   335.67   351.61   359.01   379.79
eigval :      381.11   419.13   423.69   429.74   460.43   462.88
eigval :      464.68   466.24   470.50   476.55   481.13   484.11
eigval :      489.58   492.63   517.07   543.17   553.62   556.79
eigval :      561.22   573.87   588.01   665.07   671.53   673.94
eigval :      678.60   683.40   718.17   742.30   772.52   775.15
eigval :      881.08   930.23   964.99   966.17   966.89   968.55
eigval :     1002.59  1004.69  1010.52  1013.35  1018.80  1027.25
eigval :     1028.01  1037.55  1046.42  1084.31  1085.28  1087.63
eigval :     1090.10  1090.13  1114.13  1128.93  1188.63  1228.94
eigval :     1256.93  1273.30  1307.34  1333.81  1342.78  1353.17
eigval :     1354.41  1359.34  1367.66  1385.81  1402.46  1408.11
eigval :     1424.64  1433.65  1440.63  1444.72  1449.85  1451.23
eigval :     1455.12  1461.65  1464.69  1468.25  1470.56  1481.51
eigval :     1487.78  1496.13  1505.88  1517.77  1524.89  1653.38
eigval :     1679.88  1702.28  1721.65  2910.93  2974.74  2999.89
eigval :     3006.48  3033.55  3036.97  3039.81  3043.86  3046.36
eigval :     3047.53  3051.20  3059.35  3080.93  3158.72  3231.17
eigval :     3260.58  3295.94  3299.54  3478.05  3496.87  3497.27
eigval :     3503.82  3520.78  3533.09  3536.60  3538.61  3541.29
eigval :     3561.87  3562.57  3570.68
           -------------------------------------------------
          |                Property Printout                |
           -------------------------------------------------

    * Orbital Energies and Occupations

         #    Occupation            Energy/Eh            Energy/eV
      -------------------------------------------------------------
         1        2.0000           -0.7986314             -21.7319
       ...           ...                  ...                  ...
        58        2.0000           -0.5112161             -13.9109
        59        2.0000           -0.5101604             -13.8822
        60        2.0000           -0.5085778             -13.8391
        61        2.0000           -0.5076116             -13.8128
        62        2.0000           -0.5066869             -13.7877
        63        2.0000           -0.5033483             -13.6968
        64        2.0000           -0.5018772             -13.6568
        65        2.0000           -0.5013310             -13.6419
        66        2.0000           -0.4997457             -13.5988
        67        2.0000           -0.4991301             -13.5820
        68        2.0000           -0.4971941             -13.5293
        69        2.0000           -0.4957856             -13.4910
        70        2.0000           -0.4922377             -13.3945 (HOMO)
        71                         -0.2745937              -7.4721 (LUMO)
        72                         -0.2736732              -7.4470
        73                         -0.2713810              -7.3847
        74                         -0.2696159              -7.3366
        75                         -0.1555165              -4.2318
        76                         -0.1109962              -3.0204
        77                         -0.0922459              -2.5101
        78                         -0.0875058              -2.3812
        79                         -0.0806611              -2.1949
        80                         -0.0787420              -2.1427
        81                         -0.0772046              -2.1008
       ...                                ...                  ...
       122                          0.5519391              15.0190
      -------------------------------------------------------------
                  HL-Gap            0.2176440 Eh            5.9224 eV
             Fermi-level           -0.3834157 Eh          -10.4333 eV

     #   Z          covCN         q      C6AA      α(0)
     1   8 O        1.654    -0.463    22.118     6.349
     2   6 C        3.672     0.070    19.640     6.352
     3   1 H        0.923     0.059     2.213     2.326
     4   1 H        0.924     0.054     2.274     2.358
     5   6 C        3.765    -0.053    21.572     6.620
     6   1 H        0.924     0.098     1.802     2.099
     7   1 H        0.924     0.083     1.945     2.181
     8   7 N        3.624     0.158    18.583     6.402
     9   6 C        3.734    -0.112    22.733     6.805
    10   1 H        0.925     0.077     2.007     2.215
    11   1 H        0.925     0.112     1.679     2.026
    12   1 H        0.925     0.117     1.640     2.003
    13   6 C        3.722    -0.101    22.551     6.782
    14   1 H        0.925     0.081     1.966     2.193
    15   1 H        0.925     0.120     1.611     1.985
    16   1 H        0.925     0.087     1.905     2.158
    17   6 C        3.728    -0.130    23.109     6.863
    18   1 H        0.925     0.119     1.625     1.993
    19   1 H        0.925     0.111     1.688     2.032
    20   1 H        0.925     0.110     1.698     2.038
    21   1 H        0.804     0.331     0.635     1.252
    22   6 C        2.675     0.341    21.213     7.537
    23   8 O        0.860    -0.522    24.271     6.605
    24   7 N        2.644    -0.306    27.884     7.843
    25   1 H        0.860     0.238     0.933     1.513
    26   1 H        0.861     0.175     1.245     1.747
    27   7 N        2.644    -0.309    27.945     7.851
    28   1 H        0.860     0.179     1.222     1.731
    29   1 H        0.860     0.196     1.127     1.663
    30   6 C        2.675     0.341    21.215     7.537
    31   8 O        0.860    -0.532    24.509     6.638
    32   7 N        2.644    -0.312    28.030     7.863
    33   1 H        0.860     0.240     0.922     1.504
    34   1 H        0.860     0.177     1.229     1.737
    35   7 N        2.645    -0.292    27.529     7.792
    36   1 H        0.861     0.183     1.195     1.712
    37   1 H        0.860     0.199     1.112     1.652
    38   6 C        2.675     0.342    21.191     7.533
    39   8 O        0.861    -0.524    24.312     6.611
    40   7 N        2.645    -0.299    27.710     7.818
    41   1 H        0.860     0.242     0.915     1.498
    42   1 H        0.861     0.185     1.186     1.706
    43   7 N        2.645    -0.289    27.445     7.781
    44   1 H        0.861     0.189     1.166     1.692
    45   1 H        0.861     0.200     1.106     1.648
    46   6 C        2.675     0.341    21.209     7.536
    47   8 O        0.861    -0.543    24.746     6.670
    48   7 N        2.644    -0.301    27.753     7.824
    49   1 H        0.859     0.249     0.888     1.477
    50   1 H        0.861     0.181     1.208     1.722
    51   7 N        2.644    -0.287    27.408     7.775
    52   1 H        0.861     0.187     1.175     1.698
    53   1 H        0.860     0.205     1.081     1.629

 Mol. C6AA /au·bohr⁶  :      21796.224046
 Mol. C8AA /au·bohr⁸  :     454341.696393
 Mol. α(0) /au        :        220.574386


Wiberg/Mayer (AO) data.
largest (>0.10) Wiberg bond orders for each atom

 ---------------------------------------------------------------------------
     #   Z sym  total        # sym  WBO       # sym  WBO       # sym  WBO
 ---------------------------------------------------------------------------
     1   8 O    1.954 --     2 C    1.015    21 H    0.833
     2   6 C    3.963 --     1 O    1.015     5 C    0.991     4 H    0.972
                             3 H    0.962
     3   1 H    0.996 --     2 C    0.962
     4   1 H    0.997 --     2 C    0.972
     5   6 C    3.941 --     2 C    0.991     7 H    0.970     6 H    0.965
                             8 N    0.939
     6   1 H    0.990 --     5 C    0.965
     7   1 H    0.993 --     5 C    0.970
     8   7 N    3.822 --    13 C    0.962     9 C    0.958    17 C    0.946
                             5 C    0.939
     9   6 C    3.924 --    10 H    0.980    11 H    0.969    12 H    0.963
                             8 N    0.958
    10   1 H    0.994 --     9 C    0.980
    11   1 H    0.987 --     9 C    0.969
    12   1 H    0.986 --     9 C    0.963
    13   6 C    3.931 --    14 H    0.978    16 H    0.978     8 N    0.962
                            15 H    0.961
    14   1 H    0.993 --    13 C    0.978
    15   1 H    0.986 --    13 C    0.961
    16   1 H    0.992 --    13 C    0.978
    17   6 C    3.902 --    20 H    0.960    19 H    0.959    18 H    0.954
                             8 N    0.946
    18   1 H    0.986 --    17 C    0.954
    19   1 H    0.988 --    17 C    0.959
    20   1 H    0.988 --    17 C    0.960
    21   1 H    0.890 --     1 O    0.833
    22   6 C    3.960 --    23 O    1.541    24 N    1.241    27 N    1.170
    23   8 O    1.902 --    22 C    1.541    24 N    0.155    27 N    0.132
    24   7 N    3.340 --    22 C    1.241    26 H    0.950    25 H    0.887
                            23 O    0.155
    25   1 H    0.943 --    24 N    0.887
    26   1 H    0.969 --    24 N    0.950
    27   7 N    3.278 --    22 C    1.170    28 H    0.948    29 H    0.944
                            23 O    0.132
    28   1 H    0.968 --    27 N    0.948
    29   1 H    0.961 --    27 N    0.944
    30   6 C    3.959 --    31 O    1.502    32 N    1.241    35 N    1.206
    31   8 O    1.891 --    30 C    1.502    32 N    0.142    35 N    0.134
    32   7 N    3.325 --    30 C    1.241    34 H    0.949    33 H    0.876
                            31 O    0.142
    33   1 H    0.942 --    32 N    0.876
    34   1 H    0.968 --    32 N    0.949
    35   7 N    3.321 --    30 C    1.206    36 H    0.947    37 H    0.943
                            31 O    0.134
    36   1 H    0.966 --    35 N    0.947
    37   1 H    0.960 --    35 N    0.943
    38   6 C    3.960 --    39 O    1.473    40 N    1.263    43 N    1.214
    39   8 O    1.928 --    38 C    1.473    40 N    0.140    43 N    0.129
    40   7 N    3.353 --    38 C    1.263    42 H    0.946    41 H    0.877
                            39 O    0.140
    41   1 H    0.941 --    40 N    0.877
    42   1 H    0.965 --    40 N    0.946
    43   7 N    3.327 --    38 C    1.214    44 H    0.945    45 H    0.942
                            39 O    0.129
    44   1 H    0.964 --    43 N    0.945
    45   1 H    0.960 --    43 N    0.942
    46   6 C    3.960 --    47 O    1.452    48 N    1.275    51 N    1.220
    47   8 O    1.895 --    46 C    1.452    48 N    0.139    51 N    0.126
    48   7 N    3.358 --    46 C    1.275    50 H    0.948    49 H    0.865
                            47 O    0.139
    49   1 H    0.938 --    48 N    0.865
    50   1 H    0.967 --    48 N    0.948
    51   7 N    3.332 --    46 C    1.220    52 H    0.946    53 H    0.941
                            47 O    0.126
    52   1 H    0.965 --    51 N    0.946
    53   1 H    0.958 --    51 N    0.941
 ---------------------------------------------------------------------------

Topologies differ in total number of bonds
Writing topology from bond orders to xtbtopo.mol

molecular dipole:
                 x           y           z       tot (Debye)
 q only:        0.606       0.802       0.504
   full:        0.942       1.358       0.037       4.201
molecular quadrupole (traceless):
                xx          xy          yy          xz          yz          zz
 q only:       11.541      -2.380      -5.153      -7.997      -0.607      -6.388
  q+dip:       17.429      -3.306      -5.034      -8.902       2.822     -12.395
   full:       17.920      -4.067      -5.657      -8.695       2.694     -12.263

           -------------------------------------------------
          |               Frequency Printout                |
           -------------------------------------------------
 projected vibrational frequencies (cm⁻¹)
eigval :       -0.00    -0.00     0.00     0.00     0.00     0.00
eigval :       18.17    19.73    23.28    35.89    37.92    39.63
eigval :       50.10    53.38    59.66    63.12    65.34    70.71
eigval :       77.01    89.68    93.37    97.73    99.05   117.86
eigval :      128.82   145.06   150.87   156.29   161.82   180.82
eigval :      195.35   209.30   224.30   250.16   268.23   279.19
eigval :      289.07   294.22   335.67   351.61   359.01   379.79
eigval :      381.11   419.13   423.69   429.74   460.43   462.88
eigval :      464.68   466.24   470.50   476.55   481.13   484.11
eigval :      489.58   492.63   517.07   543.17   553.62   556.79
eigval :      561.22   573.87   588.01   665.07   671.53   673.94
eigval :      678.60   683.40   718.17   742.30   772.52   775.15
eigval :      881.08   930.23   964.99   966.17   966.89   968.55
eigval :     1002.59  1004.69  1010.52  1013.35  1018.80  1027.25
eigval :     1028.01  1037.55  1046.42  1084.31  1085.28  1087.63
eigval :     1090.10  1090.13  1114.13  1128.93  1188.63  1228.94
eigval :     1256.93  1273.30  1307.34  1333.81  1342.78  1353.17
eigval :     1354.41  1359.34  1367.66  1385.81  1402.46  1408.11
eigval :     1424.64  1433.65  1440.63  1444.72  1449.85  1451.23
eigval :     1455.12  1461.65  1464.69  1468.25  1470.56  1481.51
eigval :     1487.78  1496.13  1505.88  1517.77  1524.89  1653.38
eigval :     1679.88  1702.28  1721.65  2910.93  2974.74  2999.89
eigval :     3006.48  3033.55  3036.97  3039.81  3043.86  3046.36
eigval :     3047.53  3051.20  3059.35  3080.93  3158.72  3231.17
eigval :     3260.58  3295.94  3299.54  3478.05  3496.87  3497.27
eigval :     3503.82  3520.78  3533.09  3536.60  3538.61  3541.29
eigval :     3561.87  3562.57  3570.68
 reduced masses (amu)
   1: 12.47   2: 12.66   3: 12.47   4: 12.57   5: 12.38   6: 12.60   7: 12.43   8: 11.95
   9: 11.58  10: 12.52  11: 12.70  12: 11.85  13: 12.50  14: 12.56  15: 13.34  16: 12.32
  17: 12.55  18: 12.86  19: 12.68  20: 13.10  21: 13.62  22: 11.87  23: 12.13  24: 12.85
  25: 11.72  26: 12.29  27: 13.34  28: 12.40  29: 11.41  30:  9.90  31: 10.46  32:  5.50
  33: 12.91  34:  2.42  35:  6.89  36:  4.48  37:  3.23  38:  5.50  39:  5.71  40:  2.16
  41:  7.47  42:  3.41  43:  2.01  44:  3.08  45:  2.64  46:  8.16  47:  6.61  48:  5.43
  49:  7.60  50:  7.26  51:  2.92  52:  7.60  53:  8.49  54:  2.39  55:  6.37  56:  5.51
  57:  5.45  58: 11.25  59: 10.45  60:  9.39  61: 11.57  62:  8.91  63:  3.27  64:  9.84
  65:  7.00  66:  9.86  67: 11.53  68:  8.58  69:  2.91  70:  2.24  71:  8.62  72:  2.43
  73:  6.51  74:  9.02  75:  4.91  76:  4.90  77:  4.99  78:  4.96  79:  9.15  80:  7.55
  81:  7.82  82:  9.17  83:  9.05  84:  8.62  85:  7.91  86:  3.28  87:  4.86  88:  7.98
  89:  9.19  90:  8.48  91:  8.52  92:  8.84  93:  4.49  94:  7.45  95:  4.20  96:  5.41
  97:  5.22  98:  7.96  99:  6.89 100:  3.30 101:  3.77 102:  3.68 103:  6.79 104:  4.24
 105:  5.50 106:  3.95 107:  2.54 108:  2.69 109:  2.22 110:  1.79 111:  2.14 112:  3.26
 113:  2.50 114:  2.48 115:  1.72 116:  3.15 117:  2.57 118:  2.01 119:  1.66 120:  1.75
 121:  2.01 122:  7.12 123:  8.32 124:  9.41 125:  9.95 126: 12.33 127: 12.65 128: 12.65
 129: 12.81 130:  1.78 131:  1.67 132:  1.66 133:  1.85 134:  1.75 135:  1.83 136:  1.59
 137:  1.55 138:  1.93 139:  1.80 140:  1.80 141:  1.58 142:  1.77 143:  1.81 144:  1.79
 145:  1.80 146:  1.83 147:  1.80 148:  1.46 149:  1.45 150:  1.45 151:  1.45 152:  1.89
 153:  2.02 154:  1.90 155:  2.05 156:  1.92 157:  2.18 158:  2.18 159:  2.18
 IR intensities (km·mol⁻¹)
   1:  1.12   2:  2.92   3:  2.39   4:  1.68   5:  0.74   6:  0.27   7:  0.42   8:  2.12
   9:  0.12  10:  2.03  11:  0.54  12:  3.04  13:  0.18  14:  5.43  15: 10.12  16: 11.04
  17:  3.35  18:  2.26  19:  5.18  20:  8.60  21:  5.94  22: 12.30  23:  2.21  24: 13.11
  25:  9.59  26:  6.87  27: 23.26  28:  5.04  29: 27.64  30:  4.98  31: 57.01  32:214.68
  33:  0.38  34:  4.02  35: 59.22  36: 47.42  37:185.93  38: 54.47  39:  6.33  40:120.96
  41:  4.12  42:108.27  43:  2.24  44:398.00  45: 36.82  46:  6.32  47: 44.62  48:140.49
  49:  9.90  50: 26.25  51:  5.24  52: 28.23  53: 19.17  54: 12.00  55: 34.44  56: 19.08
  57:168.49  58: 21.33  59:  4.65  60: 96.40  61: 14.21  62: 28.83  63:162.00  64: 58.04
  65:142.31  66: 25.03  67: 34.38  68:  2.18  69: 51.14  70: 80.26  71: 46.15  72:417.69
  73:  4.28  74:  9.44  75:  7.14  76:  4.35  77:  7.43  78:  0.21  79: 16.36  80: 19.71
  81: 19.16  82:  7.53  83:  4.31  84:  1.39  85:  5.40  86:  1.11  87:  8.99  88: 49.92
  89:  2.29  90:  3.70  91:  3.59  92:  0.99  93:  7.80  94: 38.28  95:  9.09  96:  8.20
  97:  3.10  98:  0.92  99:  8.45 100: 30.30 101:  2.88 102: 14.15 103:171.24 104:184.24
 105: 80.68 106: 20.43 107: 14.20 108: 38.76 109:  2.66 110:  0.71 111:  8.86 112:  6.47
 113:  2.20 114:  1.50 115:  6.63 116:  6.60 117: 27.33 118: 34.77 119: 14.44 120: 12.05
 121: 13.32 122:456.83 123:615.72 124:627.28 125:340.79 126:265.26 127:366.50 128:******
 129:672.54 130: 29.82 131: 14.37 132: 15.06 133:  4.08 134: 17.34 135: 10.21 136:  5.10
 137: 20.95 138: 21.36 139:  3.08 140:  6.31 141: 33.37 142:  8.24 143:727.64 144:783.51
 145:732.61 146:369.89 147:****** 148: 13.64 149: 22.22 150: 23.57 151: 18.48 152: 12.39
 153:  9.69 154: 17.24 155:  9.68 156: 20.33 157: 17.81 158: 12.73 159: 15.79
 Raman intensities (amu)
Molecule has no symmetry elements
It seems to be the C1 point group
   1:  0.00   2:  0.00   3:  0.00   4:  0.00   5:  0.00   6:  0.00   7:  0.00   8:  0.00
   9:  0.00  10:  0.00  11:  0.00  12:  0.00  13:  0.00  14:  0.00  15:  0.00  16:  0.00
  17:  0.00  18:  0.00  19:  0.00  20:  0.00  21:  0.00  22:  0.00  23:  0.00  24:  0.00
  25:  0.00  26:  0.00  27:  0.00  28:  0.00  29:  0.00  30:  0.00  31:  0.00  32:  0.00
  33:  0.00  34:  0.00  35:  0.00  36:  0.00  37:  0.00  38:  0.00  39:  0.00  40:  0.00
  41:  0.00  42:  0.00  43:  0.00  44:  0.00  45:  0.00  46:  0.00  47:  0.00  48:  0.00
  49:  0.00  50:  0.00  51:  0.00  52:  0.00  53:  0.00  54:  0.00  55:  0.00  56:  0.00
  57:  0.00  58:  0.00  59:  0.00  60:  0.00  61:  0.00  62:  0.00  63:  0.00  64:  0.00
  65:  0.00  66:  0.00  67:  0.00  68:  0.00  69:  0.00  70:  0.00  71:  0.00  72:  0.00
  73:  0.00  74:  0.00  75:  0.00  76:  0.00  77:  0.00  78:  0.00  79:  0.00  80:  0.00
  81:  0.00  82:  0.00  83:  0.00  84:  0.00  85:  0.00  86:  0.00  87:  0.00  88:  0.00
  89:  0.00  90:  0.00  91:  0.00  92:  0.00  93:  0.00  94:  0.00  95:  0.00  96:  0.00
  97:  0.00  98:  0.00  99:  0.00 100:  0.00 101:  0.00 102:  0.00 103:  0.00 104:  0.00
 105:  0.00 106:  0.00 107:  0.00 108:  0.00 109:  0.00 110:  0.00 111:  0.00 112:  0.00
 113:  0.00 114:  0.00 115:  0.00 116:  0.00 117:  0.00 118:  0.00 119:  0.00 120:  0.00
 121:  0.00 122:  0.00 123:  0.00 124:  0.00 125:  0.00 126:  0.00 127:  0.00 128:  0.00
 129:  0.00 130:  0.00 131:  0.00 132:  0.00 133:  0.00 134:  0.00 135:  0.00 136:  0.00
 137:  0.00 138:  0.00 139:  0.00 140:  0.00 141:  0.00 142:  0.00 143:  0.00 144:  0.00
 145:  0.00 146:  0.00 147:  0.00 148:  0.00 149:  0.00 150:  0.00 151:  0.00 152:  0.00
 153:  0.00 154:  0.00 155:  0.00 156:  0.00 157:  0.00 158:  0.00 159:  0.00
 output can be read by thermo (or use thermo option).
 writing <g98.out> molden fake output.
 recommended (thermochemical) frequency scaling factor: 1.0
           -------------------------------------------------
          |             Thermodynamic Functions             |
           -------------------------------------------------

c1  symmetry found (for desy threshold:  0.10E+00) used in thermo

          ...................................................
          :                      SETUP                      :
          :.................................................:
          :  # frequencies                         153      :
          :  # imaginary freq.                       0      :
          :  linear?                             false      :
          :  only rotor calc.                    false      :
          :  symmetry                               c1      :
          :  rotational number                       1      :
          :  scaling factor                  1.0000000      :
          :  rotor cutoff                   50.0000000 cm⁻¹ :
          :  imag. cutoff                  -20.0000000 cm⁻¹ :
          :.................................................:

    mode    ω/cm⁻¹     T·S(HO)/kcal·mol⁻¹    T·S(FR)/kcal·mol⁻¹   T·S(vib)
   ------------------------------------------------------------------------
       1     18.17    -2.03493 (  1.71%)    -1.35639 ( 98.29%)    -1.36801
       2     19.73    -1.98591 (  2.37%)    -1.33187 ( 97.63%)    -1.34736
       3     23.28    -1.88820 (  4.49%)    -1.28298 ( 95.51%)    -1.31013
       4     35.89    -1.63200 ( 20.98%)    -1.15470 ( 79.02%)    -1.25485
       5     37.92    -1.59957 ( 24.86%)    -1.13844 ( 75.14%)    -1.25305
       6     39.63    -1.57349 ( 28.30%)    -1.12536 ( 71.70%)    -1.25217
       7     50.10    -1.43515 ( 50.20%)    -1.05594 ( 49.80%)    -1.24628
       8     53.38    -1.39778 ( 56.50%)    -1.03716 ( 43.50%)    -1.24090
       9     59.66    -1.33228 ( 66.96%)    -1.00421 ( 33.04%)    -1.22389
      10     63.12    -1.29909 ( 71.75%)    -0.98749 ( 28.25%)    -1.21106
      11     65.34    -1.27875 ( 74.47%)    -0.97724 ( 25.53%)    -1.20178
      12     70.71    -1.23242 ( 80.00%)    -0.95387 ( 20.00%)    -1.17670
      13     77.01    -1.18233 ( 84.91%)    -0.92856 ( 15.09%)    -1.14405
      14     89.68    -1.09333 ( 91.19%)    -0.88346 (  8.81%)    -1.07484
      15     93.37    -1.06980 ( 92.40%)    -0.87151 (  7.60%)    -1.05474
      16     97.73    -1.04327 ( 93.59%)    -0.85800 (  6.41%)    -1.03139
      17     99.05    -1.03546 ( 93.90%)    -0.85402 (  6.10%)    -1.02439
      18    117.86    -0.93476 ( 96.86%)    -0.80252 (  3.14%)    -0.93061
      19    128.82    -0.88357 ( 97.78%)    -0.77617 (  2.22%)    -0.88119
      20    145.06    -0.81576 ( 98.61%)    -0.74101 (  1.39%)    -0.81472
      21    150.87    -0.79346 ( 98.81%)    -0.72938 (  1.19%)    -0.79270
      22    156.29    -0.77347 ( 98.96%)    -0.71892 (  1.04%)    -0.77290
      23    161.82    -0.75386 ( 99.10%)    -0.70862 (  0.90%)    -0.75345
      24    180.82    -0.69169 ( 99.42%)    -0.67573 (  0.58%)    -0.69160
      25    195.35    -0.64892 ( 99.57%)    -0.65284 (  0.43%)    -0.64893
      26    209.30    -0.61115 ( 99.68%)    -0.63240 (  0.32%)    -0.61122
      27    224.30    -0.57368 ( 99.75%)    -0.61190 (  0.25%)    -0.57377
      28    250.16    -0.51563 ( 99.84%)    -0.57956 (  0.16%)    -0.51573
      29    268.23    -0.47930 ( 99.88%)    -0.55891 (  0.12%)    -0.47940
      30    279.19    -0.45874 ( 99.90%)    -0.54705 (  0.10%)    -0.45883
      31    289.07    -0.44109 ( 99.91%)    -0.53675 (  0.09%)    -0.44117
      32    294.22    -0.43219 ( 99.92%)    -0.53152 (  0.08%)    -0.43228
   ------------------------------------------------------------------------

   temp. (K)  partition function   enthalpy   heat capacity  entropy
                                   cal/mol     cal/K/mol   cal/K/mol   J/K/mol
 298.15  VIB  0.124E+17            19248.578    104.903    125.769
         ROT  0.107E+08              888.752      2.981     35.151
         INT  0.133E+24            20137.330    107.884    160.919
         TR   0.618E+28             1481.254      4.968     43.384
         TOT                       21618.5842   112.8521   204.3035   854.8057

       T/K    H(0)-H(T)+PV         H(T)/Eh          T*S/Eh         G(T)/Eh
   ------------------------------------------------------------------------
    298.15    0.344514E-01    0.473941E+00    0.970712E-01    0.376869E+00
   ------------------------------------------------------------------------

         :::::::::::::::::::::::::::::::::::::::::::::::::::::
         ::                  THERMODYNAMIC                  ::
         :::::::::::::::::::::::::::::::::::::::::::::::::::::
         :: total free energy         -80.555891731408 Eh   ::
         ::.................................................::
         :: total energy              -80.932761132493 Eh   ::
         :: zero point energy           0.439489158177 Eh   ::
         :: G(RRHO) w/o ZPVE           -0.062619757092 Eh   ::
         :: G(RRHO) contrib.            0.376869401085 Eh   ::
         :::::::::::::::::::::::::::::::::::::::::::::::::::::

           -------------------------------------------------
          | TOTAL ENERGY              -80.932761132493 Eh   |
          | TOTAL ENTHALPY            -80.458820567433 Eh   |
          | TOTAL FREE ENERGY         -80.555891731408 Eh   |
          | GRADIENT NORM               0.000147147105 Eh/α |
          | HOMO-LUMO GAP               5.922394608711 eV   |
           -------------------------------------------------

------------------------------------------------------------------------
 * finished run on 2024/01/10 at 18:31:02.250     
------------------------------------------------------------------------
 total:
 * wall-time:     0 d,  0 h,  0 min, 14.974 sec
 *  cpu-time:     0 d,  0 h,  0 min, 14.853 sec
 * ratio c/w:     0.992 speedup
 SCF:
 * wall-time:     0 d,  0 h,  0 min,  0.107 sec
 *  cpu-time:     0 d,  0 h,  0 min,  0.061 sec
 * ratio c/w:     0.572 speedup
 analytical hessian:
 * wall-time:     0 d,  0 h,  0 min, 14.840 sec
 *  cpu-time:     0 d,  0 h,  0 min, 14.765 sec
 * ratio c/w:     0.995 speedup

