 Entering Gaussian System
 *********************************************
 Gaussian 98:
 frequency output generated by the xtb code
 *********************************************
                         Standard orientation:
 --------------------------------------------------------------------
  Center     Atomic     Atomic              Coordinates (Angstroms)
  Number     Number      Type              X           Y           Z
 --------------------------------------------------------------------
    1          8             0        2.241955    0.751102   -1.141533
    2          6             0        1.695623    2.032295   -1.055107
    3          1             0        2.508834    2.702025   -0.761984
    4          1             0        1.332699    2.367473   -2.035938
    5          6             0        0.505055    2.144633   -0.087603
    6          1             0       -0.222257    1.358811   -0.320126
    7          1             0        0.039398    3.121230   -0.233182
    8          7             0        0.813493    1.996297    1.359801
    9          6             0        1.299698    0.636393    1.646975
   10          1             0        0.530283   -0.076502    1.354569
   11          1             0        1.497331    0.559369    2.714237
   12          1             0        2.207628    0.443646    1.081273
   13          6             0       -0.436104    2.195126    2.116288
   14          1             0       -1.170129    1.462016    1.786050
   15          1             0       -0.822558    3.198582    1.951660
   16          1             0       -0.226108    2.057833    3.175564
   17          6             0        1.809005    2.972996    1.825124
   18          1             0        1.490416    3.983515    1.576555
   19          1             0        2.776397    2.776611    1.370245
   20          1             0        1.902503    2.872580    2.906723
   21          1             0        1.609253    0.170372   -1.629434
   22          6             0        0.546636   -2.046024   -1.740692
   23          8             0        0.504757   -0.952960   -2.321298
   24          7             0        1.462016   -2.280698   -0.768312
   25          1             0        2.209678   -1.616754   -0.654986
   26          1             0        1.599053   -3.206934   -0.405874
   27          7             0       -0.303577   -3.038718   -2.030900
   28          1             0       -0.312114   -3.883582   -1.489393
   29          1             0       -1.099577   -2.853559   -2.646210
   30          6             0        1.546424    1.694991    5.871433
   31          8             0        1.382339    1.784076    4.662057
   32          7             0        1.160736    0.602481    6.571723
   33          1             0        0.775844   -0.179973    6.074582
   34          1             0        1.346379    0.500344    7.552181
   35          7             0        2.126219    2.680127    6.596630
   36          1             0        2.199461    2.637168    7.596211
   37          1             0        2.372869    3.539029    6.139348
   38          6             0       -1.960599   -1.868150   -4.801394
   39          8             0       -2.401772   -2.352065   -3.753819
   40          7             0       -0.895234   -1.045735   -4.806104
   41          1             0       -0.360237   -0.937057   -3.944090
   42          1             0       -0.474585   -0.747491   -5.667252
   43          7             0       -2.547222   -2.126253   -5.989930
   44          1             0       -2.243126   -1.698959   -6.845193
   45          1             0       -3.382180   -2.684397   -5.999712
   46          6             0       -2.114101   -0.818469   -0.455414
   47          8             0       -1.476409   -0.172878    0.371144
   48          7             0       -2.629134   -2.043661   -0.167068
   49          1             0       -2.690659   -2.311539    0.799695
   50          1             0       -3.270538   -2.471396   -0.812215
   51          7             0       -2.363502   -0.372195   -1.707181
   52          1             0       -2.618974   -1.050063   -2.418564
   53          1             0       -1.807091    0.401018   -2.032240
 --------------------------------------------------------------------
     1 basis functions        1 primitive gaussians
     1 alpha electrons        1 beta electrons

 Harmonic frequencies (cm**-1), IR intensities (km*mol⁻¹),
 Raman scattering activities (A**4/amu), Raman depolarization ratios,
 reduced masses (AMU), force constants (mDyne/A) and normal coordinates:
                      1                      2                      3
                        a                      a                      a 
 Frequencies --   -10.1735                13.7162                17.3061
 Red. masses --    10.2529                12.3014                11.9068
 Frc consts  --     0.0000                 0.0000                 0.0000
 IR Inten    --     0.0796                 1.3527                 0.8143
 Raman Activ --     0.0000                 0.0000                 0.0000
 Depolar     --     0.0000                 0.0000                 0.0000
 Atom AN      X      Y      Z        X      Y      Z        X      Y      Z
   1   8    -0.02   0.06  -0.02    -0.03   0.14  -0.04    -0.07   0.01   0.08
   2   6    -0.04   0.04  -0.01    -0.04   0.12  -0.03    -0.12  -0.01   0.06
   3   1    -0.02   0.02  -0.00    -0.01   0.04  -0.01    -0.04   0.01   0.02
   4   1    -0.02   0.01  -0.00    -0.01   0.03  -0.01    -0.04  -0.01   0.02
   5   6    -0.04   0.01   0.00    -0.03   0.12  -0.02    -0.12  -0.05   0.06
   6   1    -0.01  -0.00   0.00    -0.01   0.04  -0.01    -0.03  -0.02   0.02
   7   1    -0.02   0.00   0.00    -0.00   0.04   0.00    -0.04  -0.02   0.02
   8   7    -0.02   0.02  -0.00    -0.03   0.09  -0.02    -0.13  -0.07   0.07
   9   6     0.01   0.02  -0.01    -0.05   0.07  -0.05    -0.10  -0.06   0.05
  10   1     0.00   0.00  -0.00    -0.02   0.03  -0.02    -0.03  -0.02   0.01
  11   1     0.01   0.01  -0.00    -0.02   0.01  -0.01    -0.03  -0.02   0.01
  12   1     0.00   0.01  -0.01    -0.02   0.02  -0.01    -0.03  -0.01   0.01
  13   6    -0.02  -0.01   0.01    -0.01   0.10  -0.01    -0.12  -0.09   0.07
  14   1    -0.00  -0.01   0.01    -0.01   0.04  -0.01    -0.03  -0.03   0.02
  15   1    -0.01  -0.00   0.00     0.00   0.03   0.00    -0.04  -0.03   0.02
  16   1    -0.00  -0.00   0.00    -0.00   0.02  -0.00    -0.03  -0.03   0.02
  17   6    -0.03   0.03  -0.01    -0.00   0.06  -0.01    -0.13  -0.05   0.07
  18   1    -0.02   0.01  -0.00     0.00   0.02   0.00    -0.04  -0.02   0.02
  19   1    -0.01   0.01  -0.00    -0.00   0.01  -0.01    -0.04  -0.01   0.02
  20   1    -0.01   0.01  -0.00     0.00   0.01  -0.00    -0.04  -0.02   0.02
  21   1    -0.00   0.01  -0.00    -0.01   0.03  -0.01    -0.01  -0.00   0.02
  22   6     0.03   0.02  -0.01    -0.01   0.09   0.11    -0.06  -0.01   0.05
  23   8     0.01   0.02  -0.00    -0.00   0.06   0.04     0.01  -0.02   0.03
  24   7     0.04   0.04  -0.02    -0.01   0.17   0.14    -0.12  -0.01   0.11
  25   1     0.01   0.01  -0.00     0.00   0.05   0.02    -0.03  -0.01   0.04
  26   1     0.02   0.01  -0.00    -0.00   0.05   0.05    -0.05  -0.00   0.04
  27   7     0.05   0.01  -0.00    -0.01   0.08   0.20    -0.07   0.01   0.02
  28   1     0.02   0.00  -0.00    -0.00   0.03   0.07    -0.03   0.01   0.01
  29   1     0.01  -0.00   0.00    -0.00   0.01   0.05    -0.01   0.01  -0.01
  30   6    -0.01  -0.01  -0.01     0.05  -0.20  -0.06     0.20   0.07   0.03
  31   8     0.01   0.02  -0.01     0.02  -0.09  -0.06    -0.00  -0.04   0.06
  32   7    -0.54   0.21   0.04     0.09  -0.31  -0.18     0.33   0.15   0.21
  33   1    -0.29   0.12   0.03     0.02  -0.07  -0.07     0.06   0.03   0.09
  34   1    -0.20   0.06   0.02     0.02  -0.11  -0.05     0.13   0.06   0.05
  35   7     0.51  -0.28  -0.07     0.05  -0.29   0.03     0.37   0.13  -0.16
  36   1     0.18  -0.09  -0.02     0.03  -0.11   0.01     0.14   0.06  -0.05
  37   1     0.29  -0.13  -0.03     0.01  -0.07   0.03     0.07   0.03  -0.08
  38   6     0.00  -0.01   0.01     0.07  -0.18   0.04     0.13   0.01  -0.11
  39   8     0.02  -0.02   0.02     0.04  -0.09   0.09     0.07   0.04  -0.14
  40   7    -0.01   0.00   0.01     0.08  -0.20  -0.01     0.17  -0.02  -0.06
  41   1    -0.00   0.00   0.00     0.01  -0.03  -0.00     0.03  -0.01  -0.01
  42   1    -0.01   0.00   0.00     0.03  -0.08  -0.01     0.06  -0.01  -0.01
  43   7     0.00  -0.03   0.02     0.13  -0.34   0.05     0.21   0.01  -0.15
  44   1    -0.00  -0.00   0.00     0.04  -0.11   0.00     0.07   0.00  -0.04
  45   1     0.00  -0.01   0.01     0.03  -0.09   0.02     0.05   0.01  -0.05
  46   6     0.01  -0.03   0.02    -0.07   0.15  -0.05    -0.10  -0.01  -0.08
  47   8     0.00  -0.03   0.02    -0.09   0.18  -0.06    -0.13  -0.06  -0.04
  48   7     0.04  -0.05   0.01    -0.16   0.20  -0.01    -0.22   0.03  -0.13
  49   1     0.01  -0.02   0.00    -0.06   0.07   0.00    -0.08   0.01  -0.04
  50   1     0.01  -0.01   0.00    -0.04   0.05  -0.01    -0.05   0.02  -0.05
  51   7     0.00  -0.03   0.02     0.01   0.10  -0.09     0.01   0.02  -0.10
  52   1     0.00  -0.01   0.00     0.00   0.02  -0.02     0.00   0.01  -0.03
  53   1    -0.00  -0.00   0.01     0.02   0.01  -0.03     0.03  -0.01  -0.02
                      4                      5                      6
                        a                      a                      a 
 Frequencies --    26.7193                31.2746                38.8740
 Red. masses --    11.9957                12.0048                12.3026
 Frc consts  --     0.0000                 0.0000                 0.0000
 IR Inten    --     0.2217                 4.2542                 0.4734
 Raman Activ --     0.0000                 0.0000                 0.0000
 Depolar     --     0.0000                 0.0000                 0.0000
 Atom AN      X      Y      Z        X      Y      Z        X      Y      Z
   1   8    -0.03   0.08  -0.08     0.08   0.11  -0.14     0.06   0.13  -0.14
   2   6     0.01   0.07   0.06    -0.07   0.03  -0.08    -0.02   0.08  -0.10
   3   1     0.01   0.01   0.03    -0.04   0.04  -0.03    -0.02   0.04  -0.04
   4   1    -0.00   0.05   0.03    -0.04   0.00  -0.02    -0.02   0.02  -0.02
   5   6     0.04   0.03   0.10    -0.04  -0.11  -0.03     0.01   0.00  -0.06
   6   1     0.00   0.02   0.02     0.01  -0.06   0.00    -0.00   0.01  -0.03
   7   1     0.02   0.01   0.05    -0.05  -0.05  -0.00     0.00   0.00   0.01
   8   7     0.08  -0.09   0.09     0.05  -0.08  -0.04     0.05  -0.11  -0.08
   9   6     0.06  -0.11  -0.03     0.24  -0.01  -0.06    -0.04  -0.15  -0.16
  10   1     0.01  -0.02  -0.02     0.09  -0.03  -0.01    -0.03  -0.02  -0.05
  11   1     0.02  -0.06  -0.01     0.09   0.01  -0.02    -0.01  -0.06  -0.05
  12   1     0.01  -0.02  -0.02     0.07   0.03  -0.03    -0.02  -0.05  -0.06
  13   6     0.09  -0.13   0.12     0.05  -0.24   0.01     0.09  -0.04  -0.02
  14   1     0.02  -0.03   0.02     0.04  -0.10   0.01     0.01   0.01  -0.01
  15   1     0.03  -0.03   0.06    -0.03  -0.08   0.01     0.05   0.00   0.02
  16   1     0.03  -0.06   0.03     0.03  -0.06   0.00     0.03  -0.04  -0.01
  17   6     0.10  -0.13   0.13    -0.07   0.06  -0.08     0.15  -0.21  -0.06
  18   1     0.03  -0.03   0.06    -0.06   0.01  -0.02     0.07  -0.05  -0.00
  19   1     0.02  -0.03   0.03    -0.02   0.06  -0.04     0.03  -0.08  -0.03
  20   1     0.03  -0.06   0.04    -0.00   0.02  -0.03     0.05  -0.08  -0.02
  21   1    -0.01   0.03  -0.03     0.03   0.01  -0.03     0.01   0.02  -0.01
  22   6     0.04   0.10  -0.12    -0.03   0.09   0.07    -0.02   0.08   0.12
  23   8    -0.02   0.10  -0.17     0.08   0.04  -0.03    -0.06   0.09   0.15
  24   7     0.12   0.14  -0.20    -0.08   0.12   0.13    -0.02   0.11   0.14
  25   1     0.03   0.04  -0.07    -0.01   0.02   0.02    -0.00   0.03   0.03
  26   1     0.04   0.04  -0.05    -0.05   0.04   0.07     0.01   0.03   0.03
  27   7     0.03   0.09  -0.04    -0.11   0.14   0.15     0.01   0.06   0.12
  28   1     0.02   0.03  -0.00    -0.05   0.05   0.06     0.01   0.01   0.03
  29   1    -0.01   0.02   0.00    -0.02   0.03   0.02     0.01   0.01   0.02
  30   6    -0.03   0.03   0.14    -0.02   0.02  -0.04    -0.02  -0.06  -0.07
  31   8     0.08  -0.20   0.13     0.15   0.01  -0.07     0.11  -0.32  -0.12
  32   7    -0.12   0.17   0.32    -0.12   0.02  -0.09    -0.11   0.08   0.11
  33   1     0.01   0.01   0.11    -0.01   0.00  -0.04     0.02  -0.02   0.05
  34   1    -0.02   0.08   0.09    -0.06   0.00  -0.02    -0.02   0.06   0.03
  35   7    -0.08   0.16   0.02    -0.14   0.03   0.03    -0.11   0.09  -0.21
  36   1    -0.06   0.10   0.01    -0.06   0.00   0.01    -0.07   0.08  -0.05
  37   1    -0.03   0.03  -0.03    -0.01   0.00   0.02    -0.03   0.00  -0.09
  38   6    -0.10  -0.15  -0.02     0.02   0.05  -0.01     0.09   0.06   0.04
  39   8    -0.09  -0.04   0.05    -0.00   0.12   0.00     0.11  -0.07  -0.02
  40   7    -0.10  -0.17  -0.14     0.11  -0.05  -0.05    -0.02   0.22   0.15
  41   1    -0.02  -0.02  -0.04     0.03  -0.01  -0.01    -0.01   0.05   0.05
  42   1    -0.03  -0.07  -0.05     0.03  -0.02  -0.02    -0.00   0.08   0.05
  43   7    -0.13  -0.30   0.02    -0.03   0.10   0.00     0.21   0.05  -0.01
  44   1    -0.04  -0.10  -0.01     0.01   0.01  -0.00     0.05   0.05   0.01
  45   1    -0.04  -0.08   0.03    -0.02   0.04   0.01     0.07  -0.01  -0.02
  46   6     0.01   0.08  -0.09     0.01  -0.11   0.07    -0.11  -0.02   0.05
  47   8     0.04   0.05  -0.08     0.20  -0.37   0.12    -0.16   0.11  -0.02
  48   7    -0.07   0.12  -0.11    -0.38   0.03   0.04     0.05  -0.08   0.15
  49   1    -0.03   0.03  -0.03    -0.12   0.00   0.01     0.04  -0.00   0.05
  50   1    -0.02   0.04  -0.04    -0.13   0.06  -0.00     0.01  -0.05   0.06
  51   7     0.06   0.11  -0.09     0.16  -0.00   0.09    -0.25  -0.12   0.05
  52   1     0.01   0.03  -0.02     0.00   0.02   0.02    -0.05  -0.05   0.02
  53   1     0.04   0.02  -0.02     0.12  -0.05   0.03    -0.11  -0.01   0.00
                      7                      8                      9
                        a                      a                      a 
 Frequencies --    46.0620                49.1198                54.8593
 Red. masses --    11.8568                12.5413                12.1136
 Frc consts  --     0.0000                 0.0000                 0.0000
 IR Inten    --     5.9934                 1.3091                 2.4262
 Raman Activ --     0.0000                 0.0000                 0.0000
 Depolar     --     0.0000                 0.0000                 0.0000
 Atom AN      X      Y      Z        X      Y      Z        X      Y      Z
   1   8    -0.10   0.08   0.01    -0.20   0.01  -0.05    -0.04  -0.01   0.01
   2   6    -0.24   0.01  -0.07    -0.17   0.01  -0.03     0.03   0.02   0.02
   3   1    -0.09   0.04  -0.06    -0.04   0.01  -0.04     0.02  -0.01   0.01
   4   1    -0.11  -0.04  -0.02    -0.08  -0.01  -0.00     0.01   0.01   0.01
   5   6    -0.16  -0.03   0.02    -0.08   0.04   0.09     0.03   0.08   0.01
   6   1    -0.05  -0.01   0.03    -0.03   0.01   0.05    -0.01   0.04   0.00
   7   1    -0.06  -0.01   0.02    -0.02   0.01   0.04     0.02   0.03   0.00
   8   7    -0.05  -0.02  -0.00     0.07   0.05   0.06     0.01   0.05   0.02
   9   6    -0.12  -0.05  -0.02     0.08   0.04   0.02    -0.08   0.02   0.01
  10   1    -0.06  -0.00   0.02     0.02   0.01   0.02    -0.03   0.02  -0.00
  11   1    -0.00  -0.01  -0.01     0.05   0.01  -0.00    -0.03  -0.00   0.00
  12   1    -0.06  -0.04  -0.03     0.01   0.01  -0.02    -0.02  -0.01   0.01
  13   6     0.04   0.09   0.11     0.13   0.04   0.17     0.02   0.13   0.01
  14   1    -0.01   0.04   0.05     0.03   0.01   0.07    -0.01   0.05  -0.00
  15   1     0.03   0.03   0.04     0.03   0.01   0.06     0.03   0.04   0.00
  16   1     0.04   0.02   0.03     0.07   0.01   0.05     0.00   0.03   0.00
  17   6     0.08  -0.09  -0.11     0.11   0.04  -0.04     0.07  -0.02   0.03
  18   1     0.04  -0.02  -0.04     0.03   0.01  -0.00     0.04   0.00   0.01
  19   1     0.01  -0.06  -0.05     0.02   0.01  -0.04     0.02  -0.02   0.01
  20   1     0.05  -0.02  -0.03     0.06   0.01  -0.01     0.02  -0.01   0.01
  21   1    -0.01  -0.01   0.02    -0.05   0.00  -0.01    -0.01   0.01  -0.01
  22   6     0.14  -0.15  -0.07    -0.16  -0.04  -0.02     0.04   0.02  -0.07
  23   8     0.08  -0.11   0.05    -0.14  -0.05  -0.04     0.08  -0.02  -0.17
  24   7     0.34  -0.28  -0.27    -0.28  -0.01   0.10    -0.01   0.10  -0.00
  25   1     0.10  -0.08  -0.09    -0.08   0.00   0.04    -0.00   0.03  -0.00
  26   1     0.10  -0.08  -0.10    -0.08  -0.00   0.03    -0.01   0.03   0.02
  27   7     0.06  -0.10   0.00    -0.10  -0.07  -0.12     0.04   0.02  -0.02
  28   1     0.04  -0.05  -0.03    -0.05  -0.01  -0.02     0.01   0.01   0.00
  29   1     0.00  -0.01   0.02    -0.02  -0.02  -0.04     0.03  -0.02  -0.04
  30   6     0.03   0.02  -0.02     0.09   0.05   0.08    -0.01  -0.01   0.05
  31   8     0.21   0.04  -0.05     0.40   0.12   0.06    -0.04  -0.01   0.06
  32   7    -0.07   0.02  -0.08    -0.10   0.03  -0.06    -0.02   0.00   0.07
  33   1     0.01   0.00  -0.04     0.02   0.01  -0.05     0.03  -0.02   0.01
  34   1    -0.04  -0.00  -0.02    -0.07  -0.02  -0.01     0.05  -0.02   0.01
  35   7    -0.07   0.02   0.07    -0.08   0.01   0.28     0.05  -0.03   0.03
  36   1    -0.05   0.00   0.02    -0.08  -0.02   0.08    -0.03   0.01   0.01
  37   1     0.00   0.00   0.03     0.02   0.00   0.10    -0.03   0.01   0.01
  38   6     0.06   0.05   0.05     0.06  -0.03  -0.14     0.01  -0.05  -0.15
  39   8     0.07   0.06   0.06    -0.02   0.05  -0.16     0.14  -0.22  -0.19
  40   7     0.09   0.03   0.06     0.06  -0.03  -0.12     0.07  -0.13  -0.18
  41   1     0.02   0.00   0.02    -0.00   0.00  -0.02     0.03  -0.05  -0.06
  42   1     0.02   0.01   0.02     0.04  -0.03  -0.03    -0.02   0.02  -0.05
  43   7     0.06   0.07   0.06     0.18  -0.15  -0.19    -0.21   0.23  -0.11
  44   1     0.01   0.02   0.02     0.06  -0.04  -0.05    -0.06   0.07  -0.03
  45   1     0.01   0.03   0.02     0.04  -0.03  -0.06    -0.05   0.05  -0.03
  46   6    -0.10   0.08   0.06     0.04  -0.02   0.02    -0.04  -0.04   0.12
  47   8    -0.22   0.06   0.17    -0.04   0.07   0.01    -0.05   0.14  -0.01
  48   7    -0.24   0.13  -0.01     0.22  -0.10   0.03    -0.19   0.09   0.45
  49   1    -0.11   0.03  -0.01     0.06  -0.02   0.01    -0.08   0.10   0.14
  50   1    -0.04   0.04  -0.03     0.06  -0.04   0.02    -0.06  -0.00   0.15
  51   7     0.12   0.09   0.02    -0.04  -0.06   0.02     0.11  -0.37  -0.02
  52   1     0.04   0.03  -0.00     0.00  -0.02   0.00     0.02  -0.13   0.03
  53   1     0.06   0.01   0.02    -0.05   0.01   0.01     0.06  -0.14  -0.05
                     10                     11                     12
                        a                      a                      a 
 Frequencies --    55.4165                65.7619                67.5553
 Red. masses --    12.4104                 7.7322                10.8380
 Frc consts  --     0.0000                 0.0000                 0.0000
 IR Inten    --     1.2871                 2.3818                 6.1561
 Raman Activ --     0.0000                 0.0000                 0.0000
 Depolar     --     0.0000                 0.0000                 0.0000
 Atom AN      X      Y      Z        X      Y      Z        X      Y      Z
   1   8    -0.07   0.09  -0.01     0.04  -0.01   0.02    -0.01  -0.01  -0.02
   2   6    -0.13   0.05  -0.04     0.02  -0.02   0.02    -0.01  -0.01   0.02
   3   1    -0.05   0.03  -0.03     0.00  -0.00   0.01    -0.00  -0.00   0.01
   4   1    -0.06  -0.00  -0.01     0.01  -0.00   0.01    -0.00   0.00   0.01
   5   6    -0.09   0.03   0.01     0.02  -0.04   0.02     0.00  -0.03   0.03
   6   1    -0.03   0.01   0.01     0.01  -0.01   0.00     0.00  -0.01   0.01
   7   1    -0.03   0.01   0.01     0.01  -0.01   0.01    -0.00  -0.01   0.01
   8   7    -0.04   0.00  -0.00     0.01  -0.05   0.02     0.03  -0.04   0.03
   9   6    -0.07  -0.02  -0.04    -0.10  -0.09   0.03     0.07  -0.03   0.00
  10   1    -0.03   0.00  -0.01    -0.05  -0.01   0.02     0.03  -0.01  -0.00
  11   1    -0.01  -0.01  -0.01    -0.03  -0.02   0.01     0.02  -0.01   0.00
  12   1    -0.02  -0.01  -0.02    -0.04  -0.05   0.01     0.02   0.00  -0.00
  13   6    -0.00   0.03   0.05     0.03   0.06   0.02     0.03  -0.09   0.04
  14   1    -0.01   0.02   0.02    -0.01   0.03   0.01     0.01  -0.03   0.01
  15   1     0.01   0.01   0.02     0.03   0.03  -0.00    -0.00  -0.03   0.02
  16   1     0.01  -0.00   0.01     0.01   0.02   0.01     0.02  -0.02   0.01
  17   6     0.01  -0.04  -0.03     0.09  -0.13   0.01    -0.00  -0.01   0.03
  18   1     0.01  -0.01   0.00     0.06  -0.03  -0.01    -0.01  -0.01   0.01
  19   1    -0.00  -0.02  -0.02     0.02  -0.07   0.01     0.00   0.01   0.01
  20   1     0.02  -0.02  -0.01     0.01  -0.03   0.00     0.00  -0.00   0.01
  21   1    -0.00   0.01  -0.00     0.02   0.00  -0.01    -0.00  -0.00  -0.00
  22   6     0.03  -0.04   0.09    -0.00   0.09  -0.05     0.04  -0.03   0.06
  23   8     0.13  -0.11  -0.02     0.02   0.10  -0.08     0.02  -0.06   0.01
  24   7    -0.12   0.06   0.27    -0.00   0.09  -0.06    -0.01   0.07   0.14
  25   1    -0.03   0.01   0.08     0.00   0.02  -0.02    -0.01   0.03   0.04
  26   1    -0.04   0.02   0.10    -0.01   0.02  -0.01     0.01   0.02   0.05
  27   7     0.10  -0.09   0.04    -0.03   0.12  -0.04     0.12  -0.09   0.06
  28   1    -0.01  -0.00   0.04    -0.01   0.03  -0.01     0.04  -0.02   0.02
  29   1     0.04  -0.03  -0.00    -0.01   0.04  -0.01     0.04  -0.05  -0.00
  30   6     0.01  -0.05  -0.04    -0.04   0.03  -0.04     0.05   0.06   0.05
  31   8     0.09  -0.18  -0.06    -0.11   0.05  -0.05     0.15   0.15   0.05
  32   7    -0.03   0.01   0.04     0.28  -0.10  -0.11     0.15  -0.05  -0.08
  33   1     0.00  -0.01   0.02    -0.29   0.11   0.03    -0.17   0.08  -0.00
  34   1    -0.02   0.03   0.02    -0.34   0.14   0.06    -0.25   0.08   0.04
  35   7    -0.06   0.03  -0.10    -0.25   0.12  -0.05    -0.16   0.08   0.18
  36   1    -0.02   0.03  -0.02     0.34  -0.12  -0.05     0.19  -0.10   0.02
  37   1     0.00  -0.01  -0.05     0.25  -0.09  -0.06     0.19  -0.05   0.04
  38   6    -0.02   0.01   0.05     0.02  -0.00  -0.05    -0.05  -0.02   0.04
  39   8     0.06   0.02   0.10    -0.04   0.17   0.00     0.12  -0.34  -0.03
  40   7     0.21  -0.30  -0.07     0.13  -0.14  -0.14    -0.25   0.24   0.14
  41   1     0.07  -0.08  -0.03     0.03  -0.01  -0.04    -0.04   0.02   0.03
  42   1     0.02  -0.06  -0.03     0.04  -0.07  -0.04    -0.09   0.12   0.05
  43   7    -0.36   0.34   0.15     0.00  -0.07  -0.03    -0.08   0.11   0.03
  44   1    -0.07   0.04   0.02     0.02  -0.06  -0.02    -0.06   0.09   0.02
  45   1    -0.11   0.11   0.06    -0.02   0.00   0.01     0.01  -0.02  -0.01
  46   6     0.08   0.04  -0.09    -0.03  -0.04   0.13    -0.04   0.02  -0.18
  47   8    -0.06   0.07  -0.00    -0.10  -0.03   0.19    -0.05   0.05  -0.23
  48   7     0.25  -0.06  -0.23     0.05  -0.09   0.07    -0.14   0.08  -0.14
  49   1     0.05  -0.03  -0.07     0.01  -0.03   0.02    -0.05   0.03  -0.04
  50   1     0.09  -0.02  -0.08     0.02  -0.02   0.01    -0.02   0.01  -0.04
  51   7     0.10   0.10  -0.07    -0.03  -0.00   0.15     0.04  -0.05  -0.24
  52   1     0.05   0.03  -0.03     0.00   0.01   0.03     0.01  -0.03  -0.05
  53   1    -0.00   0.05  -0.00    -0.03   0.02   0.05     0.03  -0.03  -0.08
                     13                     14                     15
                        a                      a                      a 
 Frequencies --    70.5804                77.9506                86.4412
 Red. masses --    11.6330                12.0497                13.1900
 Frc consts  --     0.0000                 0.0000                 0.0000
 IR Inten    --     9.6488                 2.5773                 1.8665
 Raman Activ --     0.0000                 0.0000                 0.0000
 Depolar     --     0.0000                 0.0000                 0.0000
 Atom AN      X      Y      Z        X      Y      Z        X      Y      Z
   1   8     0.14   0.01  -0.04     0.04   0.06  -0.07     0.11  -0.20   0.25
   2   6     0.03  -0.03  -0.04     0.07   0.06   0.01     0.16  -0.14   0.17
   3   1    -0.01   0.01  -0.01     0.02   0.00   0.02     0.05  -0.05   0.08
   4   1     0.00  -0.02  -0.01     0.03   0.03   0.00     0.09  -0.03   0.04
   5   6     0.01  -0.13  -0.05     0.05   0.03  -0.01     0.06  -0.09   0.03
   6   1     0.01  -0.04  -0.02     0.02   0.01  -0.02     0.03  -0.03   0.00
   7   1    -0.01  -0.04  -0.01     0.01   0.01   0.00     0.02  -0.03  -0.02
   8   7     0.00  -0.15  -0.05     0.03   0.00  -0.01    -0.08   0.01   0.07
   9   6    -0.14  -0.19  -0.03     0.17   0.04  -0.06    -0.04   0.05   0.18
  10   1    -0.06  -0.03   0.00     0.07  -0.01  -0.03    -0.00   0.00   0.06
  11   1    -0.03  -0.05  -0.01     0.05   0.01  -0.02    -0.02   0.04   0.06
  12   1    -0.05  -0.08  -0.02     0.06   0.05  -0.01    -0.01   0.01   0.07
  13   6     0.02  -0.00  -0.04    -0.01  -0.17  -0.03    -0.14   0.00  -0.04
  14   1    -0.01   0.02  -0.01     0.02  -0.07  -0.02    -0.03  -0.01  -0.02
  15   1     0.04   0.01  -0.02    -0.04  -0.06   0.00    -0.04  -0.00  -0.03
  16   1     0.00   0.00  -0.01    -0.01  -0.05  -0.01    -0.06   0.01  -0.01
  17   6     0.11  -0.25  -0.07    -0.10   0.10   0.05    -0.16   0.09   0.08
  18   1     0.08  -0.06  -0.05    -0.07   0.02   0.03    -0.06   0.02   0.01
  19   1     0.03  -0.12  -0.00    -0.02   0.07   0.02    -0.04   0.04   0.04
  20   1     0.01  -0.05  -0.02    -0.03   0.02   0.01    -0.05   0.03   0.02
  21   1     0.04   0.00  -0.02    -0.01   0.02   0.01     0.03  -0.03   0.03
  22   6     0.05   0.14   0.02    -0.02  -0.02   0.03     0.06   0.10  -0.04
  23   8     0.07   0.13  -0.04    -0.16   0.06   0.20     0.06   0.12  -0.05
  24   7     0.03   0.19   0.06     0.17  -0.15  -0.19     0.04   0.13  -0.01
  25   1     0.02   0.04  -0.00     0.05  -0.04  -0.06     0.00   0.04   0.01
  26   1     0.01   0.05   0.02     0.07  -0.05  -0.09     0.01   0.03  -0.00
  27   7     0.05   0.14   0.06    -0.08   0.02   0.06     0.11   0.09  -0.08
  28   1     0.01   0.05   0.03     0.02  -0.02  -0.03     0.03   0.03  -0.02
  29   1     0.01   0.03   0.01    -0.03   0.01   0.03     0.02   0.02  -0.02
  30   6     0.02   0.13   0.09     0.03   0.02   0.06     0.13  -0.02  -0.14
  31   8    -0.06   0.42   0.14     0.08   0.06   0.07     0.50  -0.13  -0.21
  32   7    -0.04   0.03  -0.09     0.04  -0.01   0.02    -0.13   0.07  -0.16
  33   1     0.10  -0.01  -0.08    -0.04   0.02   0.01     0.07  -0.02  -0.07
  34   1     0.15  -0.11  -0.07    -0.06   0.01   0.02    -0.03   0.01  -0.04
  35   7     0.19  -0.08   0.27    -0.02   0.01   0.12    -0.07   0.05  -0.07
  36   1    -0.10  -0.01   0.08     0.05  -0.03   0.03    -0.11   0.04  -0.01
  37   1    -0.09   0.06   0.14     0.05  -0.01   0.03     0.01   0.00  -0.02
  38   6    -0.00  -0.01   0.01     0.06  -0.04   0.00    -0.01  -0.02  -0.01
  39   8     0.04  -0.00   0.03    -0.03  -0.02  -0.03     0.03  -0.01   0.01
  40   7     0.03  -0.06  -0.04     0.28  -0.34   0.03    -0.02  -0.02  -0.06
  41   1     0.01  -0.00  -0.02     0.04  -0.07   0.02    -0.00   0.01  -0.02
  42   1    -0.01  -0.01  -0.02     0.07  -0.06   0.02    -0.02  -0.00  -0.02
  43   7    -0.09   0.03   0.04    -0.05   0.23   0.00    -0.06  -0.03   0.01
  44   1    -0.02  -0.01   0.00     0.04   0.02  -0.00    -0.02  -0.02  -0.00
  45   1    -0.02   0.00   0.02    -0.02   0.08  -0.01    -0.01  -0.02   0.01
  46   6    -0.11  -0.06  -0.04    -0.12   0.02  -0.07    -0.13  -0.01   0.01
  47   8    -0.19  -0.07   0.01    -0.01   0.08  -0.23    -0.23   0.03   0.05
  48   7     0.00  -0.14  -0.14    -0.01  -0.00   0.07    -0.06  -0.05  -0.03
  49   1    -0.00  -0.06  -0.04     0.06   0.00   0.02    -0.03  -0.02  -0.01
  50   1     0.01  -0.04  -0.05    -0.03  -0.02   0.06    -0.00  -0.02  -0.02
  51   7    -0.16   0.00  -0.01    -0.42  -0.02  -0.04    -0.11  -0.01   0.01
  52   1    -0.02   0.01  -0.01    -0.11  -0.02   0.00    -0.01  -0.00  -0.00
  53   1    -0.07   0.03   0.01    -0.14   0.00  -0.03    -0.04   0.01   0.01
                     16                     17                     18
                        a                      a                      a 
 Frequencies --   100.4880               102.7784               106.9291
 Red. masses --    12.5822                12.7060                12.3637
 Frc consts  --     0.0000                 0.0000                 0.0000
 IR Inten    --     2.9433                 5.3205                 9.2731
 Raman Activ --     0.0000                 0.0000                 0.0000
 Depolar     --     0.0000                 0.0000                 0.0000
 Atom AN      X      Y      Z        X      Y      Z        X      Y      Z
   1   8     0.00  -0.08  -0.16     0.09  -0.02  -0.03    -0.06   0.02   0.10
   2   6    -0.01  -0.07  -0.05    -0.00  -0.04  -0.11    -0.09  -0.00   0.13
   3   1    -0.00  -0.03  -0.01    -0.01   0.01  -0.04    -0.03   0.00   0.03
   4   1    -0.01  -0.01  -0.01    -0.00  -0.04  -0.04    -0.04   0.00   0.04
   5   6     0.01  -0.12  -0.02    -0.04  -0.04  -0.15    -0.05  -0.05   0.18
   6   1     0.01  -0.04   0.00    -0.00  -0.02  -0.04    -0.02  -0.01   0.05
   7   1    -0.01  -0.04  -0.00    -0.02  -0.02  -0.06    -0.02  -0.01   0.07
   8   7     0.06  -0.09  -0.02    -0.09   0.05  -0.13     0.03  -0.10   0.17
   9   6     0.29   0.00  -0.04    -0.04   0.08  -0.05     0.09  -0.08   0.09
  10   1     0.11  -0.04  -0.01    -0.01   0.01  -0.00     0.03  -0.03   0.02
  11   1     0.09   0.01  -0.01    -0.01   0.04  -0.01     0.04  -0.03   0.02
  12   1     0.09   0.04  -0.02    -0.01   0.02  -0.01     0.02  -0.01   0.01
  13   6     0.03  -0.29   0.00    -0.10   0.04  -0.16     0.05  -0.17   0.22
  14   1     0.04  -0.11  -0.00    -0.02   0.00  -0.04     0.02  -0.05   0.06
  15   1    -0.03  -0.10   0.01    -0.04   0.01  -0.06     0.00  -0.05   0.08
  16   1     0.02  -0.08  -0.00    -0.04   0.02  -0.04     0.03  -0.06   0.06
  17   6    -0.12   0.10  -0.02    -0.14   0.10  -0.12     0.01  -0.06   0.12
  18   1    -0.09   0.01  -0.00    -0.05   0.02  -0.04    -0.01  -0.02   0.04
  19   1    -0.02   0.08  -0.01    -0.04   0.04  -0.03    -0.00  -0.01   0.03
  20   1    -0.03   0.03  -0.01    -0.04   0.03  -0.03     0.01  -0.01   0.03
  21   1     0.00  -0.01  -0.05     0.06  -0.02  -0.03     0.00   0.00   0.00
  22   6     0.05  -0.06  -0.06     0.08  -0.04  -0.02     0.02  -0.01   0.01
  23   8     0.04  -0.09  -0.12     0.36  -0.17  -0.29     0.20  -0.12  -0.18
  24   7    -0.08   0.07   0.10     0.07  -0.06  -0.02     0.10  -0.04  -0.07
  25   1    -0.03   0.03   0.03     0.06  -0.06  -0.05     0.06  -0.04  -0.07
  26   1    -0.00   0.02   0.02    -0.04  -0.00   0.06    -0.01  -0.00   0.02
  27   7     0.19  -0.15  -0.17    -0.22   0.13   0.28    -0.26   0.14   0.34
  28   1     0.04  -0.03  -0.02    -0.10   0.06   0.12    -0.09   0.05   0.11
  29   1     0.05  -0.04  -0.04    -0.03   0.04   0.05    -0.05   0.03   0.06
  30   6    -0.06   0.01   0.01     0.06  -0.06   0.18    -0.05   0.06  -0.19
  31   8    -0.20   0.05   0.04     0.16  -0.14   0.19    -0.14   0.14  -0.20
  32   7     0.03  -0.02   0.02     0.04  -0.03   0.25    -0.04   0.02  -0.26
  33   1    -0.01  -0.00   0.01    -0.02  -0.00   0.08     0.01   0.00  -0.09
  34   1     0.04  -0.01  -0.00    -0.06   0.03   0.08     0.04  -0.03  -0.08
  35   7     0.04  -0.02  -0.02    -0.04  -0.00   0.20     0.02   0.01  -0.19
  36   1     0.01  -0.00  -0.00     0.04  -0.01   0.05    -0.03   0.01  -0.05
  37   1    -0.03   0.01  -0.00     0.06  -0.03   0.04    -0.05   0.02  -0.04
  38   6     0.05   0.04   0.00    -0.03   0.05  -0.01    -0.02   0.01  -0.04
  39   8     0.14   0.10   0.07    -0.04   0.10   0.01    -0.02  -0.01  -0.06
  40   7     0.02   0.08  -0.11    -0.07   0.12  -0.04    -0.05   0.05  -0.02
  41   1     0.02   0.02  -0.04     0.00   0.01  -0.02    -0.00  -0.00  -0.01
  42   1    -0.00   0.00  -0.04    -0.01  -0.00  -0.02    -0.01   0.01  -0.00
  43   7    -0.01  -0.08   0.06     0.02  -0.06  -0.01     0.01   0.01  -0.05
  44   1    -0.03  -0.02   0.01    -0.01  -0.01  -0.00    -0.00   0.02  -0.01
  45   1    -0.00  -0.02   0.04     0.00  -0.01   0.00     0.00   0.00  -0.02
  46   6    -0.13   0.16   0.11    -0.01   0.00   0.00     0.05   0.05  -0.04
  47   8    -0.35   0.31   0.19    -0.07   0.08  -0.02     0.03   0.17  -0.11
  48   7     0.03   0.10   0.10     0.13  -0.06   0.03     0.20   0.02   0.06
  49   1    -0.02   0.04   0.03     0.04  -0.01   0.01     0.07   0.03   0.02
  50   1     0.04   0.00   0.01     0.03  -0.03   0.02     0.05  -0.02   0.04
  51   7    -0.04   0.08   0.08    -0.07  -0.04   0.01    -0.03  -0.04  -0.06
  52   1     0.04   0.01   0.02    -0.01  -0.01  -0.00    -0.01  -0.02  -0.01
  53   1    -0.05   0.05   0.03    -0.06   0.02   0.00    -0.05   0.01  -0.03
                     19                     20                     21
                        a                      a                      a 
 Frequencies --   117.1007               118.3429               124.5112
 Red. masses --    13.1388                11.6496                13.5396
 Frc consts  --     0.0000                 0.0000                 0.0000
 IR Inten    --     8.4283                 7.5766                14.0999
 Raman Activ --     0.0000                 0.0000                 0.0000
 Depolar     --     0.0000                 0.0000                 0.0000
 Atom AN      X      Y      Z        X      Y      Z        X      Y      Z
   1   8     0.28   0.33   0.09    -0.10  -0.07  -0.14     0.18   0.12  -0.04
   2   6     0.03   0.20   0.04     0.08  -0.00   0.02     0.09   0.07  -0.00
   3   1    -0.02   0.10   0.01     0.04  -0.05   0.06     0.02   0.03   0.01
   4   1     0.00   0.04   0.01     0.06   0.06   0.01     0.03   0.02  -0.00
   5   6    -0.02   0.03  -0.00    -0.01   0.02  -0.08     0.06  -0.01  -0.03
   6   1     0.01   0.00  -0.03    -0.01   0.03  -0.06     0.03  -0.01  -0.01
   7   1    -0.02   0.00   0.02     0.03   0.02  -0.01     0.00  -0.01  -0.01
   8   7    -0.06  -0.07  -0.00    -0.18  -0.15  -0.07     0.04   0.01  -0.02
   9   6    -0.07  -0.08  -0.07    -0.21  -0.17  -0.15     0.10   0.03  -0.02
  10   1    -0.02  -0.02  -0.03    -0.06  -0.04  -0.07     0.03   0.00   0.01
  11   1    -0.02  -0.04  -0.02    -0.07  -0.07  -0.04     0.04   0.02  -0.01
  12   1    -0.02  -0.01  -0.02    -0.05  -0.04  -0.03     0.02   0.02  -0.01
  13   6    -0.07  -0.11  -0.02    -0.23  -0.19  -0.15     0.01  -0.05  -0.04
  14   1    -0.02  -0.03  -0.02    -0.05  -0.06  -0.07     0.01  -0.02  -0.02
  15   1    -0.02  -0.03   0.01    -0.07  -0.06  -0.04    -0.01  -0.02  -0.01
  16   1    -0.03  -0.05  -0.01    -0.09  -0.06  -0.04    -0.00  -0.02  -0.01
  17   6    -0.06  -0.10   0.08    -0.21  -0.19   0.12    -0.03   0.07   0.00
  18   1    -0.01  -0.02   0.03    -0.06  -0.05   0.06    -0.02   0.01  -0.00
  19   1    -0.02  -0.03   0.03    -0.05  -0.04   0.05    -0.00   0.03   0.01
  20   1    -0.03  -0.04   0.02    -0.08  -0.09   0.03    -0.02   0.02   0.00
  21   1     0.10   0.05   0.03    -0.05   0.01  -0.03     0.04   0.02   0.01
  22   6     0.07  -0.06  -0.06    -0.08  -0.01   0.03    -0.08   0.05   0.07
  23   8     0.34  -0.01   0.03    -0.24  -0.01   0.05    -0.10   0.13   0.23
  24   7    -0.19  -0.24   0.15     0.02   0.07  -0.05     0.03  -0.11  -0.07
  25   1    -0.02  -0.10   0.08    -0.01   0.04  -0.03     0.02  -0.05  -0.02
  26   1    -0.09  -0.08   0.01     0.04   0.02  -0.02     0.01  -0.04  -0.05
  27   7     0.08   0.00  -0.36    -0.04  -0.06   0.10    -0.18   0.14   0.10
  28   1    -0.03   0.01  -0.09     0.02  -0.02   0.02    -0.03   0.01  -0.01
  29   1     0.01   0.04  -0.07    -0.01  -0.03   0.02    -0.04   0.03   0.02
  30   6     0.02   0.03  -0.03     0.07   0.05  -0.00    -0.01  -0.00   0.02
  31   8     0.07   0.07  -0.03     0.20   0.09  -0.01    -0.03  -0.01   0.02
  32   7    -0.01   0.02  -0.08    -0.01   0.03  -0.08     0.01  -0.00   0.03
  33   1     0.00   0.01  -0.03     0.01   0.01  -0.04     0.00  -0.00   0.01
  34   1    -0.01  -0.01  -0.02    -0.03  -0.00  -0.02     0.01  -0.00   0.01
  35   7    -0.00   0.01   0.02    -0.01   0.02   0.10     0.01  -0.01   0.00
  36   1    -0.00  -0.01   0.01    -0.01  -0.01   0.03    -0.01   0.00   0.00
  37   1     0.01   0.00   0.01     0.03   0.00   0.04    -0.01   0.00   0.00
  38   6    -0.10  -0.02   0.04     0.04   0.04   0.01    -0.09  -0.08  -0.08
  39   8    -0.28   0.06   0.02     0.07   0.08   0.04    -0.16  -0.20  -0.16
  40   7    -0.07  -0.08   0.13     0.05   0.03  -0.03    -0.08  -0.10   0.06
  41   1    -0.02  -0.02   0.04     0.01   0.01  -0.01    -0.04  -0.02   0.03
  42   1     0.01  -0.05   0.04     0.01   0.00  -0.01    -0.02   0.02   0.03
  43   7     0.04  -0.08  -0.01     0.02   0.02   0.03    -0.02   0.06  -0.15
  44   1     0.04  -0.03   0.00    -0.00   0.00   0.00     0.02   0.03  -0.02
  45   1    -0.00  -0.00  -0.02     0.00   0.01   0.02    -0.00   0.01  -0.07
  46   6     0.00   0.03   0.00     0.18   0.10   0.05     0.02  -0.02   0.04
  47   8     0.05   0.10  -0.08     0.19   0.17   0.04    -0.39   0.11   0.27
  48   7    -0.02   0.07   0.14     0.17   0.15   0.15     0.14  -0.12  -0.15
  49   1    -0.00   0.05   0.05     0.04   0.06   0.05    -0.06  -0.02  -0.04
  50   1    -0.02   0.01   0.06     0.05   0.03   0.05     0.10  -0.05  -0.10
  51   7    -0.01  -0.08  -0.03     0.26   0.03   0.02     0.42  -0.09  -0.06
  52   1    -0.03  -0.03   0.01     0.06   0.00   0.01     0.12  -0.02  -0.02
  53   1    -0.01  -0.02  -0.03     0.08  -0.01  -0.00     0.11  -0.01   0.02
                     22                     23                     24
                        a                      a                      a 
 Frequencies --   136.4262               151.9972               170.5589
 Red. masses --    10.9952                12.8000                13.4763
 Frc consts  --     0.0000                 0.0000                 0.0000
 IR Inten    --    12.1804                17.5739                13.9745
 Raman Activ --     0.0000                 0.0000                 0.0000
 Depolar     --     0.0000                 0.0000                 0.0000
 Atom AN      X      Y      Z        X      Y      Z        X      Y      Z
   1   8     0.11  -0.11   0.15     0.16   0.13   0.09    -0.11  -0.11  -0.00
   2   6    -0.22  -0.21  -0.09    -0.01   0.06   0.00    -0.01  -0.06  -0.01
   3   1    -0.11   0.02  -0.09    -0.02   0.05  -0.01     0.01  -0.03  -0.01
   4   1    -0.11  -0.15  -0.04    -0.02  -0.01  -0.01    -0.00  -0.01  -0.00
   5   6    -0.18  -0.33  -0.04    -0.01  -0.02  -0.00     0.00   0.02   0.00
   6   1    -0.02  -0.14   0.03     0.01  -0.02  -0.00    -0.01   0.02   0.01
   7   1    -0.11  -0.13  -0.03    -0.02  -0.02  -0.00     0.02   0.01   0.00
   8   7    -0.06  -0.11  -0.04    -0.01  -0.01  -0.00     0.03   0.01  -0.00
   9   6     0.02  -0.03   0.16    -0.01  -0.01   0.01     0.04   0.01  -0.01
  10   1     0.01  -0.03   0.09    -0.00  -0.00   0.01     0.01   0.00  -0.01
  11   1     0.02   0.04   0.05    -0.00   0.00   0.00     0.00  -0.00  -0.00
  12   1    -0.00  -0.02   0.04    -0.00  -0.00   0.01     0.02   0.01   0.00
  13   6     0.01  -0.01   0.04    -0.01   0.00  -0.00     0.04  -0.01   0.01
  14   1    -0.01  -0.01   0.04    -0.00   0.00  -0.00     0.01  -0.00   0.00
  15   1     0.00  -0.00  -0.01     0.00   0.00  -0.00     0.01  -0.00   0.01
  16   1     0.02   0.02   0.01    -0.00   0.00  -0.00     0.01  -0.00   0.00
  17   6    -0.04   0.00  -0.29    -0.00  -0.01  -0.02     0.03   0.02  -0.01
  18   1    -0.02  -0.01  -0.13     0.00  -0.00  -0.01     0.00   0.00   0.00
  19   1    -0.02  -0.02  -0.09    -0.00  -0.01  -0.01     0.01   0.01  -0.01
  20   1     0.01   0.06  -0.08    -0.00   0.00  -0.01     0.02   0.00  -0.00
  21   1     0.06  -0.06   0.04     0.04   0.00   0.06    -0.04  -0.01  -0.00
  22   6    -0.00   0.15   0.01     0.06  -0.06   0.21     0.12   0.01   0.12
  23   8    -0.06   0.24   0.14    -0.04  -0.01   0.37    -0.05  -0.03   0.09
  24   7     0.01   0.07  -0.03     0.13  -0.17   0.16     0.19   0.16   0.09
  25   1    -0.00   0.02   0.02     0.04  -0.05   0.04     0.02   0.08   0.02
  26   1     0.00   0.01  -0.03     0.06  -0.07  -0.02     0.08   0.06   0.04
  27   7     0.03   0.16  -0.10     0.09  -0.07   0.15     0.25  -0.12   0.12
  28   1     0.03   0.02  -0.06     0.03  -0.04   0.01     0.06  -0.01   0.06
  29   1     0.00   0.04  -0.02     0.04  -0.01   0.03     0.05  -0.03   0.07
  30   6    -0.02  -0.03   0.03     0.00  -0.00  -0.00    -0.01   0.00   0.00
  31   8    -0.04  -0.06   0.04     0.01  -0.01  -0.00    -0.01   0.01   0.00
  32   7     0.01  -0.02   0.07    -0.00  -0.00   0.00     0.00  -0.00  -0.00
  33   1    -0.01  -0.01   0.03    -0.00   0.00   0.00    -0.00   0.00   0.00
  34   1    -0.00   0.01   0.02    -0.00   0.00   0.00     0.00  -0.00   0.00
  35   7    -0.01  -0.01   0.00    -0.00   0.00  -0.00     0.01  -0.00  -0.00
  36   1     0.02  -0.00  -0.00     0.00  -0.00  -0.00    -0.00   0.00   0.00
  37   1     0.01  -0.01  -0.01     0.00  -0.00  -0.00    -0.01   0.00   0.00
  38   6    -0.02  -0.04   0.01    -0.08   0.03  -0.23    -0.14   0.15   0.01
  39   8    -0.07  -0.07  -0.02     0.15   0.12  -0.14    -0.43   0.46   0.03
  40   7     0.00  -0.08   0.07    -0.15   0.14  -0.48    -0.00  -0.02   0.02
  41   1    -0.02   0.00   0.02    -0.02   0.05  -0.15    -0.02  -0.00   0.02
  42   1    -0.00   0.01   0.02    -0.05   0.01  -0.15     0.06  -0.09   0.01
  43   7     0.00   0.03  -0.01    -0.24  -0.18  -0.14     0.08  -0.03  -0.07
  44   1     0.02  -0.01  -0.00    -0.14  -0.04  -0.06     0.06  -0.03  -0.02
  45   1     0.01  -0.00  -0.02    -0.06  -0.05   0.03    -0.03   0.07  -0.03
  46   6     0.12   0.11  -0.04     0.01   0.02   0.01    -0.02  -0.09  -0.10
  47   8     0.19   0.19  -0.13     0.09  -0.01  -0.02    -0.12   0.05  -0.16
  48   7     0.13   0.17   0.13     0.00   0.03   0.03    -0.01  -0.09   0.03
  49   1     0.05   0.07   0.04     0.04  -0.01   0.01    -0.07   0.05   0.03
  50   1     0.02   0.02   0.06    -0.01   0.01   0.02    -0.03  -0.01   0.03
  51   7     0.08   0.01  -0.06    -0.10   0.07   0.04     0.12  -0.31  -0.19
  52   1    -0.00  -0.01   0.00    -0.01   0.02   0.01     0.04  -0.10  -0.04
  53   1     0.02  -0.01  -0.04    -0.02   0.01   0.01     0.02  -0.08  -0.06
                     25                     26                     27
                        a                      a                      a 
 Frequencies --   186.2030               189.9365               237.2111
 Red. masses --    10.9440                12.5885                 2.5931
 Frc consts  --     0.0000                 0.0000                 0.0000
 IR Inten    --    28.9774                20.0253               143.3666
 Raman Activ --     0.0000                 0.0000                 0.0000
 Depolar     --     0.0000                 0.0000                 0.0000
 Atom AN      X      Y      Z        X      Y      Z        X      Y      Z
   1   8     0.19   0.21  -0.49     0.12   0.11  -0.06    -0.03  -0.02  -0.06
   2   6     0.07   0.12   0.07     0.02   0.06   0.03    -0.00  -0.01  -0.00
   3   1     0.01   0.01   0.09    -0.00   0.02   0.02     0.01  -0.01   0.00
   4   1     0.02   0.13   0.05     0.00   0.02   0.01    -0.00   0.01   0.00
   5   6     0.03  -0.28   0.07     0.01  -0.07   0.03     0.01  -0.00   0.01
   6   1     0.09  -0.16   0.03     0.03  -0.04   0.01     0.00   0.00   0.00
   7   1    -0.09  -0.13  -0.00    -0.03  -0.04   0.00     0.00   0.00   0.00
   8   7    -0.03  -0.03   0.12     0.02   0.01   0.04     0.00   0.00   0.01
   9   6    -0.06   0.01   0.35     0.01   0.02   0.09    -0.00   0.00   0.01
  10   1    -0.05  -0.00   0.19    -0.00   0.00   0.05    -0.00   0.00   0.01
  11   1     0.04   0.07   0.10     0.02   0.02   0.03     0.00   0.00   0.00
  12   1    -0.06  -0.05   0.06    -0.01  -0.01   0.01    -0.00  -0.00  -0.00
  13   6    -0.06   0.16   0.00     0.01   0.05   0.01    -0.00   0.01   0.00
  14   1    -0.04   0.08  -0.01    -0.00   0.02  -0.00    -0.00   0.00  -0.00
  15   1     0.03   0.06  -0.01     0.02   0.02   0.01     0.00   0.00  -0.00
  16   1    -0.05   0.05   0.01    -0.01   0.01   0.00    -0.00   0.00   0.00
  17   6    -0.03   0.03   0.00     0.01   0.03  -0.01    -0.00   0.00   0.02
  18   1     0.04  -0.01  -0.11     0.01   0.00  -0.04    -0.00   0.00   0.01
  19   1     0.01  -0.06   0.08     0.01  -0.01   0.02    -0.00   0.00   0.00
  20   1    -0.07   0.10   0.02    -0.01   0.04   0.00    -0.00  -0.00   0.01
  21   1     0.03   0.07  -0.11     0.02   0.02   0.01    -0.01  -0.00  -0.01
  22   6    -0.02  -0.09  -0.01    -0.16   0.01  -0.05     0.02  -0.01   0.02
  23   8    -0.11  -0.16  -0.09    -0.12   0.06   0.03     0.03  -0.02   0.01
  24   7     0.01   0.08  -0.00    -0.14  -0.14  -0.12     0.02  -0.01   0.02
  25   1    -0.01   0.04  -0.04    -0.02  -0.06  -0.03     0.01  -0.00   0.01
  26   1     0.05   0.03   0.01    -0.05  -0.05  -0.06     0.00  -0.00   0.01
  27   7     0.04  -0.19   0.07    -0.20   0.05  -0.08     0.03  -0.01  -0.00
  28   1     0.02  -0.04   0.04    -0.06   0.02  -0.02    -0.02   0.01   0.03
  29   1     0.01  -0.07   0.02    -0.06   0.03  -0.01     0.00   0.01   0.01
  30   6     0.01  -0.01  -0.01    -0.00  -0.00  -0.00    -0.00   0.00  -0.00
  31   8     0.02  -0.03  -0.01     0.00  -0.01  -0.00     0.00   0.00  -0.00
  32   7    -0.01   0.00   0.00    -0.00  -0.00   0.00     0.00  -0.00  -0.00
  33   1     0.01  -0.01   0.00     0.00  -0.00   0.00    -0.00   0.00  -0.00
  34   1     0.01   0.00  -0.00     0.00   0.00   0.00    -0.00   0.00   0.00
  35   7    -0.01  -0.00  -0.02    -0.00   0.00  -0.01     0.00  -0.00  -0.00
  36   1    -0.01   0.01  -0.01     0.00   0.00  -0.00    -0.01   0.00   0.00
  37   1     0.00  -0.00  -0.01     0.00  -0.00  -0.00    -0.00   0.00   0.00
  38   6    -0.03   0.00  -0.02     0.13   0.10   0.13     0.02  -0.04  -0.04
  39   8    -0.09  -0.00  -0.06     0.29   0.22   0.27    -0.03   0.02  -0.03
  40   7    -0.01  -0.03   0.04     0.10   0.13  -0.11    -0.03   0.01  -0.00
  41   1    -0.01  -0.03   0.02     0.04   0.07  -0.04    -0.05   0.08   0.01
  42   1     0.02  -0.02   0.02    -0.01   0.03  -0.05    -0.09   0.17   0.02
  43   7     0.06   0.04  -0.08    -0.10  -0.12   0.32    -0.19   0.26   0.04
  44   1     0.02   0.04  -0.01    -0.06  -0.11   0.04     0.45  -0.61  -0.15
  45   1    -0.00   0.04  -0.04    -0.00  -0.07   0.17     0.26  -0.39  -0.09
  46   6     0.00   0.03   0.00    -0.00  -0.11  -0.13    -0.00   0.01   0.01
  47   8     0.04   0.01  -0.00    -0.11   0.04  -0.19     0.01  -0.00   0.01
  48   7     0.00   0.04   0.01    -0.00  -0.10   0.01    -0.00   0.00   0.01
  49   1     0.02   0.00   0.00    -0.05   0.04   0.02    -0.01   0.01   0.00
  50   1    -0.00   0.01   0.01    -0.00  -0.04   0.01    -0.02   0.02   0.01
  51   7    -0.05   0.05   0.02     0.13  -0.30  -0.22     0.01   0.00   0.01
  52   1    -0.01   0.01   0.00     0.05  -0.10  -0.04    -0.01   0.01  -0.00
  53   1    -0.02   0.02   0.00     0.05  -0.10  -0.07    -0.02   0.02   0.01
                     28                     29                     30
                        a                      a                      a 
 Frequencies --   260.2241               268.4551               298.4264
 Red. masses --    12.6182                 4.8130                 3.5166
 Frc consts  --     0.0000                 0.0000                 0.0000
 IR Inten    --    23.9123                 5.1975               526.7694
 Raman Activ --     0.0000                 0.0000                 0.0000
 Depolar     --     0.0000                 0.0000                 0.0000
 Atom AN      X      Y      Z        X      Y      Z        X      Y      Z
   1   8    -0.22  -0.20  -0.54     0.27   0.10   0.03    -0.04   0.01   0.02
   2   6    -0.06  -0.17  -0.13    -0.12  -0.04  -0.20     0.00   0.02   0.01
   3   1     0.02  -0.09  -0.05    -0.07   0.09  -0.18     0.00  -0.00   0.01
   4   1    -0.06   0.01  -0.00    -0.15  -0.13  -0.06     0.01   0.01   0.00
   5   6     0.07  -0.03   0.06     0.06  -0.02   0.03    -0.01   0.00  -0.00
   6   1    -0.01   0.01   0.04    -0.01   0.01   0.03     0.00  -0.00  -0.00
   7   1     0.05   0.00   0.01     0.04   0.00   0.01    -0.01  -0.00   0.00
   8   7     0.01   0.03   0.10     0.05  -0.00   0.06    -0.00  -0.01  -0.01
   9   6    -0.04   0.01   0.09    -0.03  -0.01   0.15     0.01   0.00   0.03
  10   1    -0.02   0.01   0.03     0.06  -0.01  -0.13    -0.00  -0.00   0.04
  11   1    -0.00  -0.01   0.02    -0.21  -0.05   0.08     0.04   0.02   0.00
  12   1    -0.02  -0.00   0.01     0.11   0.05   0.21    -0.01  -0.01  -0.01
  13   6    -0.05   0.09   0.00    -0.03   0.07  -0.09    -0.02  -0.01  -0.04
  14   1    -0.01   0.02   0.01     0.05  -0.08   0.07    -0.01   0.01  -0.03
  15   1    -0.01   0.02  -0.03    -0.08  -0.03  -0.18     0.01   0.00   0.00
  16   1    -0.03   0.06   0.01    -0.02   0.19  -0.00    -0.01  -0.02  -0.01
  17   6    -0.03   0.01   0.21     0.03  -0.05   0.18     0.01  -0.01  -0.01
  18   1    -0.07   0.01   0.18    -0.15   0.01   0.37     0.01  -0.00  -0.01
  19   1    -0.03   0.09  -0.02    -0.07   0.20  -0.20     0.00  -0.01   0.00
  20   1     0.05  -0.09   0.05     0.23  -0.26   0.01     0.00   0.00  -0.00
  21   1    -0.09  -0.04  -0.10     0.10  -0.02   0.03    -0.01   0.01   0.00
  22   6     0.13   0.08   0.10    -0.06  -0.03  -0.05     0.01   0.00   0.00
  23   8     0.27   0.16   0.21    -0.13  -0.06  -0.09     0.01   0.00   0.00
  24   7     0.04  -0.19   0.13    -0.01   0.09  -0.07     0.00  -0.01  -0.00
  25   1     0.02  -0.08   0.08    -0.01   0.04  -0.04    -0.00  -0.00   0.01
  26   1    -0.03  -0.07  -0.01     0.02   0.03  -0.01    -0.01   0.00   0.01
  27   7     0.00   0.29  -0.12    -0.01  -0.12   0.05    -0.01   0.01   0.00
  28   1    -0.03   0.04  -0.09     0.01  -0.02   0.04     0.01  -0.01  -0.01
  29   1     0.02   0.12  -0.04    -0.01  -0.05   0.02     0.00   0.00  -0.00
  30   6     0.00   0.01  -0.01    -0.01   0.01  -0.00    -0.11   0.04   0.02
  31   8     0.00   0.01  -0.01     0.00   0.01  -0.00     0.01  -0.02  -0.00
  32   7    -0.00   0.00  -0.02     0.01  -0.00  -0.03     0.26  -0.10  -0.07
  33   1    -0.00   0.00  -0.01    -0.02   0.01  -0.01    -0.26   0.10   0.05
  34   1    -0.00  -0.00  -0.01    -0.03   0.01  -0.00    -0.48   0.21   0.11
  35   7     0.00   0.00  -0.01     0.02  -0.00  -0.00     0.29  -0.11  -0.02
  36   1    -0.00   0.00  -0.00    -0.03   0.01   0.00    -0.52   0.22   0.05
  37   1    -0.00   0.00  -0.00    -0.02   0.01   0.00    -0.30   0.10   0.04
  38   6    -0.01  -0.01  -0.00     0.00   0.00   0.00     0.00   0.00  -0.00
  39   8     0.01  -0.02   0.00    -0.00   0.01   0.00     0.00  -0.00  -0.00
  40   7    -0.01  -0.00  -0.01     0.01  -0.00   0.00    -0.00   0.00  -0.00
  41   1     0.00   0.01  -0.01    -0.00  -0.00   0.00     0.00  -0.00  -0.00
  42   1    -0.00  -0.00  -0.00     0.00  -0.00   0.00     0.00  -0.00  -0.00
  43   7    -0.01  -0.05   0.01     0.01   0.02  -0.00    -0.00  -0.00   0.00
  44   1    -0.05   0.04   0.01     0.02  -0.01  -0.00    -0.01   0.00   0.00
  45   1    -0.02   0.02   0.02     0.01  -0.00  -0.01    -0.00   0.00   0.00
  46   6     0.00  -0.01  -0.01    -0.01   0.00   0.00     0.00  -0.00  -0.00
  47   8     0.00   0.00  -0.03    -0.01   0.01   0.01     0.01  -0.00  -0.00
  48   7    -0.00  -0.00   0.01     0.00  -0.00  -0.00    -0.01   0.01   0.01
  49   1     0.01  -0.00   0.00    -0.00   0.00  -0.00     0.01  -0.01  -0.00
  50   1     0.00  -0.01   0.00    -0.00   0.00  -0.00     0.01  -0.01  -0.00
  51   7     0.00  -0.02  -0.02    -0.00  -0.00   0.00    -0.00  -0.00  -0.00
  52   1    -0.02   0.00   0.00     0.01  -0.00  -0.00    -0.00  -0.00   0.00
  53   1     0.00  -0.01  -0.01    -0.00   0.00   0.00     0.00  -0.00  -0.00
                     31                     32                     33
                        a                      a                      a 
 Frequencies --   302.0768               322.6872               357.8442
 Red. masses --     8.3899                 4.6862                 4.2257
 Frc consts  --     0.0000                 0.0000                 0.0000
 IR Inten    --     3.9474                 0.7478                 6.7573
 Raman Activ --     0.0000                 0.0000                 0.0000
 Depolar     --     0.0000                 0.0000                 0.0000
 Atom AN      X      Y      Z        X      Y      Z        X      Y      Z
   1   8    -0.33   0.10   0.12    -0.17   0.02  -0.06     0.25  -0.06  -0.16
   2   6    -0.13   0.14  -0.11     0.18   0.12   0.24    -0.10  -0.18  -0.08
   3   1    -0.02   0.04  -0.06     0.08  -0.06   0.20    -0.05   0.00  -0.07
   4   1    -0.06   0.02  -0.03     0.17   0.18   0.07    -0.10  -0.10  -0.02
   5   6     0.04   0.08   0.01    -0.04  -0.02  -0.03    -0.02   0.03   0.06
   6   1     0.01   0.03  -0.00     0.01  -0.02  -0.04    -0.07   0.06   0.05
   7   1    -0.00   0.02   0.06    -0.03  -0.01  -0.00     0.06   0.04  -0.01
   8   7     0.13  -0.08  -0.03    -0.05  -0.06  -0.05    -0.05   0.10   0.08
   9   6     0.18   0.01   0.34    -0.09  -0.05   0.04    -0.05   0.06  -0.18
  10   1     0.12  -0.05   0.04     0.06  -0.03  -0.18     0.09   0.02  -0.31
  11   1    -0.08   0.07   0.13    -0.24  -0.06   0.05    -0.24  -0.12  -0.02
  12   1     0.13   0.01   0.22     0.10   0.04   0.19     0.12   0.14   0.13
  13   6    -0.11  -0.11  -0.42     0.06  -0.03   0.13    -0.02   0.01   0.16
  14   1     0.03  -0.09  -0.15     0.11  -0.21   0.28     0.04  -0.09   0.15
  15   1    -0.06  -0.06  -0.22    -0.17  -0.12  -0.21    -0.10  -0.05  -0.05
  16   1    -0.13   0.04  -0.09     0.12   0.31   0.06     0.04   0.13   0.05
  17   6     0.16  -0.14   0.04     0.02   0.01  -0.35    -0.01   0.04   0.16
  18   1     0.17  -0.04  -0.15    -0.05  -0.01  -0.07     0.19  -0.00  -0.26
  19   1     0.09  -0.18   0.15    -0.03   0.04  -0.18     0.08  -0.22   0.32
  20   1    -0.09   0.07   0.03     0.11   0.00  -0.11    -0.26   0.23   0.09
  21   1    -0.09   0.02   0.04    -0.07   0.06  -0.03     0.08  -0.05  -0.03
  22   6     0.03   0.00   0.01     0.03  -0.00   0.02    -0.01   0.00  -0.01
  23   8     0.05   0.01   0.02     0.06   0.01   0.03    -0.02   0.00  -0.00
  24   7     0.01  -0.03   0.02     0.00  -0.05   0.04    -0.00   0.01  -0.01
  25   1    -0.00  -0.00   0.02    -0.00  -0.01   0.01    -0.00   0.01   0.00
  26   1    -0.00  -0.01  -0.00     0.02  -0.03  -0.03     0.01   0.00  -0.01
  27   7    -0.01   0.05  -0.01    -0.02   0.05  -0.02    -0.00  -0.01   0.01
  28   1    -0.01   0.01  -0.02    -0.02   0.01  -0.02     0.01  -0.00  -0.00
  29   1     0.00   0.02  -0.01     0.00   0.03  -0.01    -0.00  -0.01   0.00
  30   6     0.02  -0.01  -0.00    -0.01  -0.01   0.00     0.01  -0.00  -0.00
  31   8     0.03  -0.01  -0.00    -0.00  -0.01   0.00     0.02  -0.01  -0.01
  32   7    -0.02   0.01   0.01     0.01  -0.01   0.02     0.01  -0.00  -0.01
  33   1     0.02  -0.01  -0.00    -0.01  -0.00   0.01    -0.01   0.00   0.00
  34   1     0.03  -0.01  -0.01    -0.01   0.01   0.01    -0.04   0.02   0.01
  35   7    -0.02   0.01   0.01     0.00  -0.01  -0.00     0.02  -0.00  -0.00
  36   1     0.03  -0.01  -0.00    -0.02   0.01   0.00    -0.05   0.02   0.00
  37   1     0.02  -0.01  -0.00    -0.01  -0.00  -0.00    -0.01   0.00  -0.00
  38   6    -0.00  -0.00  -0.00     0.00  -0.00  -0.00    -0.00   0.00   0.00
  39   8     0.00  -0.00  -0.00     0.00  -0.00  -0.00    -0.00   0.00   0.00
  40   7    -0.00   0.00   0.00    -0.00   0.00   0.00     0.00  -0.00  -0.00
  41   1     0.00  -0.00  -0.00     0.00   0.00  -0.00    -0.00   0.00   0.00
  42   1    -0.00   0.00   0.00    -0.00   0.00   0.00    -0.00   0.01   0.00
  43   7    -0.00  -0.00   0.00    -0.01  -0.01   0.00     0.00  -0.00  -0.00
  44   1    -0.00  -0.00   0.00    -0.01  -0.00   0.00    -0.00   0.00   0.00
  45   1    -0.00  -0.00   0.00    -0.00  -0.00   0.00    -0.00   0.00  -0.00
  46   6    -0.01   0.00   0.00    -0.00   0.01  -0.00    -0.00  -0.00  -0.00
  47   8    -0.02   0.01   0.01    -0.01   0.01  -0.00    -0.00  -0.00   0.00
  48   7     0.00   0.00   0.00     0.00   0.00   0.00    -0.00  -0.00   0.00
  49   1    -0.00  -0.00   0.00     0.00   0.00  -0.00     0.00  -0.00  -0.00
  50   1     0.01  -0.01  -0.00     0.00  -0.00  -0.00     0.00  -0.00  -0.00
  51   7     0.01  -0.00   0.00     0.01  -0.01  -0.01     0.00   0.00   0.00
  52   1     0.00   0.00  -0.00    -0.00  -0.00  -0.00     0.00   0.00  -0.00
  53   1    -0.00   0.00   0.00    -0.01   0.00  -0.00     0.00  -0.00   0.00
                     34                     35                     36
                        a                      a                      a 
 Frequencies --   365.8895               369.1441               372.7641
 Red. masses --     2.5585                 5.3229                 3.8846
 Frc consts  --     0.0000                 0.0000                 0.0000
 IR Inten    --    50.5107                 1.0623                 0.2645
 Raman Activ --     0.0000                 0.0000                 0.0000
 Depolar     --     0.0000                 0.0000                 0.0000
 Atom AN      X      Y      Z        X      Y      Z        X      Y      Z
   1   8     0.03   0.02  -0.02    -0.11   0.02   0.05     0.01   0.00   0.07
   2   6     0.02   0.02  -0.03    -0.05   0.03   0.19    -0.06  -0.02   0.11
   3   1     0.01   0.01  -0.02    -0.03  -0.02   0.17    -0.04  -0.00   0.08
   4   1    -0.00  -0.00  -0.01     0.07   0.09   0.05     0.02   0.01   0.03
   5   6     0.03   0.05  -0.00    -0.18  -0.29  -0.03    -0.11  -0.12   0.01
   6   1    -0.01   0.03  -0.01     0.05  -0.19   0.03     0.00  -0.08   0.04
   7   1     0.03   0.02   0.01    -0.18  -0.15  -0.04    -0.08  -0.07  -0.03
   8   7    -0.00   0.00   0.01     0.02  -0.02  -0.06    -0.02   0.05  -0.01
   9   6    -0.04  -0.00   0.05     0.21   0.03  -0.22     0.18   0.07  -0.23
  10   1    -0.04   0.01   0.04     0.19  -0.03  -0.31    -0.02   0.01   0.17
  11   1     0.01   0.01   0.01    -0.16  -0.10  -0.03     0.34   0.06  -0.12
  12   1    -0.02  -0.02  -0.00     0.21   0.17   0.12    -0.11  -0.00  -0.32
  13   6    -0.00  -0.07   0.04     0.04   0.27  -0.12    -0.07   0.16  -0.12
  14   1     0.02  -0.04   0.03    -0.09   0.23  -0.14     0.09  -0.16   0.19
  15   1    -0.03  -0.03  -0.00     0.19   0.16   0.07    -0.18  -0.07  -0.35
  16   1     0.01   0.00   0.01    -0.05  -0.07  -0.04     0.01   0.40   0.00
  17   6     0.01   0.01  -0.03    -0.01  -0.07   0.12     0.07  -0.13   0.21
  18   1     0.00  -0.00  -0.02    -0.01  -0.01   0.11     0.08  -0.01   0.09
  19   1    -0.00  -0.01  -0.02     0.01   0.03   0.04     0.03  -0.07   0.09
  20   1     0.01   0.02  -0.01    -0.01  -0.11   0.03    -0.02  -0.08   0.06
  21   1     0.03   0.00  -0.04    -0.02   0.03  -0.02     0.01   0.00   0.00
  22   6     0.00  -0.03   0.03     0.02  -0.01   0.00    -0.01   0.00  -0.00
  23   8     0.00  -0.01   0.04     0.02  -0.01   0.01    -0.01   0.00  -0.00
  24   7     0.14  -0.05  -0.25     0.02  -0.02  -0.02     0.00   0.01  -0.01
  25   1    -0.12   0.09   0.24    -0.03   0.02   0.05     0.01  -0.01  -0.01
  26   1    -0.41   0.19   0.61    -0.05   0.02   0.08    -0.03   0.01   0.03
  27   7    -0.07   0.03   0.07    -0.03   0.03   0.01     0.01  -0.02   0.01
  28   1     0.24  -0.19  -0.30     0.05  -0.04  -0.08     0.01  -0.00   0.00
  29   1     0.03  -0.04  -0.05     0.01   0.00  -0.02     0.00  -0.01   0.00
  30   6     0.00   0.00  -0.00     0.01   0.01  -0.00    -0.00  -0.01   0.00
  31   8    -0.00   0.00  -0.00     0.01   0.00  -0.00    -0.00  -0.01   0.00
  32   7    -0.01   0.00   0.00    -0.00   0.01  -0.01    -0.00  -0.00   0.01
  33   1     0.00  -0.00  -0.00     0.00   0.00  -0.01    -0.00   0.00  -0.00
  34   1     0.02  -0.01  -0.00     0.00  -0.00  -0.00     0.01  -0.01  -0.00
  35   7    -0.01  -0.00   0.00     0.00   0.00   0.01    -0.00   0.01  -0.01
  36   1     0.01  -0.01  -0.00     0.00  -0.01   0.00     0.00   0.01  -0.00
  37   1     0.00  -0.00   0.00     0.00   0.00   0.01     0.00  -0.00  -0.01
  38   6    -0.00   0.02  -0.01    -0.00   0.01  -0.00    -0.00   0.00   0.00
  39   8    -0.00   0.03  -0.01    -0.00   0.01  -0.00    -0.00   0.00   0.00
  40   7     0.01   0.00  -0.00     0.00  -0.01   0.00     0.00  -0.00  -0.00
  41   1    -0.00   0.00   0.00    -0.00   0.00   0.00    -0.00   0.00   0.00
  42   1    -0.01   0.03   0.00    -0.01   0.02   0.00     0.00  -0.00  -0.00
  43   7    -0.02  -0.02   0.00    -0.00  -0.01   0.00     0.00   0.00  -0.00
  44   1    -0.00  -0.03  -0.01    -0.00  -0.01  -0.00     0.00   0.00   0.00
  45   1    -0.00  -0.01   0.01    -0.00  -0.00   0.00    -0.00   0.00  -0.00
  46   6    -0.00  -0.00  -0.01    -0.00  -0.00  -0.00    -0.00   0.01  -0.01
  47   8    -0.00   0.01   0.00    -0.01   0.00   0.01     0.00   0.00  -0.01
  48   7    -0.02   0.04   0.01    -0.01   0.02   0.01     0.01   0.01   0.01
  49   1     0.01  -0.03  -0.01     0.03  -0.01  -0.00     0.00   0.01   0.00
  50   1     0.10  -0.07  -0.05     0.03  -0.03  -0.01    -0.00   0.00   0.01
  51   7    -0.03  -0.01  -0.00     0.01   0.00  -0.00    -0.00  -0.00  -0.01
  52   1     0.01  -0.01   0.00     0.00   0.00  -0.00     0.00  -0.00  -0.00
  53   1     0.01  -0.01  -0.01    -0.00   0.01   0.00    -0.01   0.00  -0.00
                     37                     38                     39
                        a                      a                      a 
 Frequencies --   398.7060               426.0872               430.8716
 Red. masses --     4.0169                 3.0577                 8.4252
 Frc consts  --     0.0000                 0.0000                 0.0000
 IR Inten    --   207.3393               522.0584                 0.8277
 Raman Activ --     0.0000                 0.0000                 0.0000
 Depolar     --     0.0000                 0.0000                 0.0000
 Atom AN      X      Y      Z        X      Y      Z        X      Y      Z
   1   8     0.02  -0.00   0.01     0.01  -0.01   0.01     0.16  -0.06  -0.13
   2   6    -0.00  -0.01  -0.00    -0.01  -0.00   0.00     0.03  -0.10   0.11
   3   1    -0.00   0.00  -0.01    -0.00   0.00  -0.00     0.01  -0.04   0.06
   4   1    -0.01  -0.01  -0.00    -0.00  -0.01   0.00     0.04   0.01   0.03
   5   6     0.01   0.01   0.01     0.00  -0.01   0.01    -0.12   0.09  -0.02
   6   1    -0.00   0.00   0.01    -0.00  -0.00   0.01    -0.06   0.05  -0.01
   7   1     0.01   0.00   0.00    -0.00  -0.00  -0.00     0.02   0.05  -0.04
   8   7     0.02   0.02   0.01     0.01   0.02   0.01    -0.27   0.18   0.03
   9   6    -0.02   0.00  -0.00    -0.01   0.01  -0.01     0.14   0.36   0.06
  10   1    -0.02   0.01   0.02    -0.01   0.01   0.00     0.13   0.01   0.02
  11   1     0.02   0.00  -0.01     0.00  -0.00  -0.00     0.05   0.13   0.02
  12   1    -0.02  -0.02  -0.02    -0.01  -0.01  -0.01     0.07   0.19   0.02
  13   6     0.00  -0.02  -0.01     0.00  -0.02  -0.01    -0.30  -0.13   0.10
  14   1     0.01  -0.02  -0.00     0.01  -0.01  -0.01    -0.06  -0.02  -0.06
  15   1    -0.01  -0.01  -0.01    -0.01  -0.01  -0.00    -0.11  -0.03   0.14
  16   1    -0.00  -0.00  -0.00    -0.00  -0.00  -0.00    -0.09  -0.15   0.01
  17   6     0.02   0.02  -0.00     0.02   0.01   0.00     0.26  -0.29  -0.14
  18   1     0.00   0.01   0.00     0.01   0.00   0.00     0.20  -0.02   0.07
  19   1     0.00   0.01  -0.01     0.00   0.00  -0.00    -0.01  -0.20  -0.17
  20   1     0.01   0.01  -0.00     0.01   0.00   0.00     0.19  -0.17  -0.06
  21   1    -0.01  -0.00   0.03    -0.00   0.01   0.00     0.04  -0.01  -0.04
  22   6     0.06  -0.05  -0.07     0.02  -0.01  -0.01    -0.00   0.00   0.00
  23   8     0.01  -0.07  -0.07     0.00  -0.03  -0.02    -0.00   0.00   0.00
  24   7    -0.08   0.07   0.18    -0.03   0.04   0.07     0.00  -0.01  -0.01
  25   1     0.02  -0.01  -0.08    -0.01   0.03  -0.01    -0.02   0.02   0.03
  26   1     0.19  -0.06  -0.22     0.11  -0.02  -0.10     0.02  -0.01  -0.02
  27   7    -0.11   0.09   0.12    -0.07   0.06   0.03    -0.00  -0.00  -0.00
  28   1     0.25  -0.19  -0.30     0.13  -0.10  -0.17    -0.02   0.01   0.02
  29   1     0.03  -0.02  -0.05    -0.02   0.02   0.00     0.00  -0.00  -0.00
  30   6    -0.00  -0.00   0.00     0.00  -0.00   0.00    -0.00   0.00   0.01
  31   8    -0.00  -0.00   0.00    -0.00  -0.00   0.00    -0.01   0.00   0.01
  32   7    -0.00  -0.00   0.00    -0.00  -0.00   0.00    -0.01   0.00  -0.00
  33   1    -0.00   0.00  -0.00    -0.00   0.00  -0.00     0.02  -0.01  -0.01
  34   1     0.01  -0.01  -0.00     0.01  -0.01  -0.00    -0.02   0.00   0.00
  35   7    -0.00   0.00  -0.00    -0.00   0.00  -0.00     0.00   0.00  -0.00
  36   1     0.01  -0.00  -0.00     0.01  -0.00  -0.00     0.04  -0.02  -0.00
  37   1     0.00  -0.00  -0.00     0.00  -0.00  -0.00    -0.03   0.01   0.01
  38   6    -0.06   0.10  -0.00     0.05  -0.08   0.02    -0.00   0.00   0.00
  39   8    -0.03   0.09   0.01    -0.01  -0.06   0.01    -0.00   0.00   0.00
  40   7     0.09  -0.16   0.02    -0.11   0.24  -0.04     0.00  -0.00  -0.00
  41   1    -0.02   0.07   0.02    -0.01  -0.04  -0.01     0.00   0.00  -0.00
  42   1    -0.24   0.39   0.03     0.40  -0.65  -0.05    -0.01   0.01   0.00
  43   7     0.04  -0.09  -0.02    -0.06   0.13   0.05     0.00  -0.00  -0.00
  44   1    -0.02  -0.01  -0.01     0.09  -0.08  -0.00     0.00  -0.00  -0.00
  45   1    -0.02   0.03   0.02     0.04  -0.04  -0.02    -0.00   0.00   0.00
  46   6     0.02  -0.04  -0.00    -0.00  -0.02  -0.02     0.00  -0.00   0.00
  47   8    -0.00  -0.01  -0.00    -0.03  -0.02   0.01    -0.00   0.00   0.00
  48   7    -0.17   0.16   0.04    -0.11   0.12   0.05    -0.00   0.00  -0.00
  49   1     0.27  -0.22  -0.05     0.22  -0.15  -0.03     0.00  -0.01  -0.00
  50   1     0.27  -0.23  -0.11     0.21  -0.19  -0.07     0.02  -0.01  -0.01
  51   7     0.02  -0.06  -0.03     0.04  -0.03  -0.03    -0.01   0.00   0.00
  52   1     0.02  -0.02  -0.01    -0.07   0.02   0.00    -0.01  -0.00   0.00
  53   1    -0.01   0.00   0.01     0.02  -0.02  -0.03     0.02  -0.01  -0.01
                     40                     41                     42
                        a                      a                      a 
 Frequencies --   445.2477               454.9747               458.9149
 Red. masses --     1.4741                 8.4288                 3.1411
 Frc consts  --     0.0000                 0.0000                 0.0000
 IR Inten    --     2.0462                 5.7191                16.4239
 Raman Activ --     0.0000                 0.0000                 0.0000
 Depolar     --     0.0000                 0.0000                 0.0000
 Atom AN      X      Y      Z        X      Y      Z        X      Y      Z
   1   8     0.01  -0.00  -0.00     0.03   0.00  -0.03    -0.03  -0.00   0.01
   2   6     0.01  -0.00  -0.01    -0.04  -0.03   0.08     0.01   0.01  -0.01
   3   1     0.00  -0.00   0.00    -0.01  -0.00   0.00     0.00   0.00   0.00
   4   1     0.01   0.00  -0.00    -0.04  -0.01   0.03     0.01   0.00  -0.01
   5   6    -0.01   0.01  -0.02     0.02   0.01   0.13    -0.00  -0.05  -0.02
   6   1    -0.00   0.01  -0.01    -0.02   0.03   0.04     0.04  -0.06   0.02
   7   1     0.00   0.01  -0.00     0.03   0.02   0.04    -0.05  -0.04  -0.03
   8   7    -0.02   0.00  -0.01     0.02  -0.01   0.10     0.04   0.09  -0.01
   9   6     0.01   0.02   0.02     0.01  -0.05  -0.06    -0.09   0.05  -0.01
  10   1     0.01  -0.00   0.01    -0.01   0.00  -0.03    -0.04   0.04  -0.01
  11   1     0.00   0.01   0.01     0.02  -0.06  -0.02    -0.04   0.00  -0.00
  12   1     0.01   0.01   0.01    -0.01   0.00  -0.04    -0.03  -0.01   0.01
  13   6    -0.01  -0.00   0.02    -0.08   0.01  -0.07     0.01  -0.09  -0.00
  14   1    -0.01   0.01   0.00    -0.01   0.01  -0.06     0.03  -0.04  -0.02
  15   1     0.00   0.00   0.02    -0.01   0.01  -0.04    -0.04  -0.04   0.02
  16   1     0.00  -0.01   0.00    -0.08  -0.00  -0.01     0.00  -0.04  -0.00
  17   6     0.00  -0.03  -0.01     0.05   0.05  -0.07     0.08   0.04   0.04
  18   1     0.01  -0.00   0.01    -0.01   0.00  -0.03     0.04   0.02   0.03
  19   1    -0.00  -0.01  -0.01    -0.01   0.02  -0.06     0.02   0.00   0.01
  20   1     0.00  -0.02  -0.00     0.06   0.04  -0.02     0.02  -0.01   0.01
  21   1     0.00  -0.00  -0.00     0.01  -0.00  -0.00    -0.00   0.00  -0.01
  22   6    -0.00   0.00   0.00    -0.00   0.01   0.00    -0.02   0.01   0.01
  23   8    -0.00   0.00   0.00    -0.00   0.01   0.00     0.02   0.02   0.03
  24   7     0.00  -0.00  -0.00     0.00  -0.00  -0.01     0.02  -0.00  -0.04
  25   1    -0.00   0.00   0.00     0.01  -0.01  -0.00    -0.01   0.01   0.01
  26   1     0.00  -0.00  -0.00    -0.01   0.00   0.01    -0.03   0.02   0.05
  27   7     0.00  -0.00  -0.00     0.01  -0.01  -0.00     0.01  -0.02  -0.02
  28   1    -0.01   0.01   0.01    -0.01   0.01   0.02    -0.04   0.03   0.05
  29   1     0.00  -0.00  -0.00     0.00  -0.00   0.00    -0.01  -0.01   0.01
  30   6     0.00  -0.00   0.05    -0.04   0.02  -0.30     0.00   0.00   0.00
  31   8     0.00   0.00   0.05    -0.05   0.03  -0.33    -0.00  -0.00   0.00
  32   7     0.08  -0.08  -0.04     0.18   0.27   0.21    -0.00   0.00  -0.00
  33   1    -0.44   0.20   0.00    -0.06  -0.01   0.28    -0.00   0.00  -0.00
  34   1     0.39  -0.25  -0.10     0.21   0.25   0.05     0.00  -0.00  -0.00
  35   7    -0.08   0.08  -0.00    -0.13  -0.31   0.21    -0.00   0.00   0.00
  36   1    -0.41   0.27   0.04    -0.20  -0.26   0.06    -0.00   0.00   0.00
  37   1     0.45  -0.19  -0.15     0.14  -0.03   0.25     0.00  -0.00   0.00
  38   6    -0.00   0.00   0.00    -0.00  -0.00   0.00     0.04   0.02  -0.07
  39   8     0.00   0.00   0.00     0.00  -0.00   0.01     0.00   0.01  -0.09
  40   7     0.00  -0.00  -0.00    -0.00  -0.00  -0.01     0.05   0.01   0.11
  41   1     0.00   0.00  -0.00     0.00   0.00  -0.00    -0.03  -0.01   0.06
  42   1    -0.00   0.00   0.00    -0.01   0.00  -0.00     0.07   0.01   0.06
  43   7     0.00  -0.00  -0.00     0.01   0.00  -0.00    -0.09  -0.06   0.01
  44   1    -0.00   0.00   0.00     0.01   0.00   0.00    -0.10  -0.02  -0.03
  45   1    -0.00   0.00  -0.00     0.00   0.00  -0.01    -0.01  -0.04   0.08
  46   6     0.00   0.00   0.00    -0.01  -0.01  -0.01    -0.04   0.01  -0.09
  47   8     0.00   0.00   0.00    -0.01  -0.01  -0.00    -0.10  -0.10   0.05
  48   7    -0.00   0.00  -0.00     0.00   0.00   0.02    -0.05   0.07   0.04
  49   1    -0.00  -0.00  -0.00     0.03  -0.00   0.01     0.54  -0.13   0.01
  50   1     0.00  -0.00  -0.00     0.00  -0.02   0.01    -0.36   0.13   0.29
  51   7    -0.00  -0.01   0.00     0.01   0.02  -0.01     0.16  -0.03  -0.11
  52   1    -0.00  -0.00   0.00    -0.00   0.01  -0.00     0.24  -0.00  -0.11
  53   1    -0.00  -0.00  -0.00     0.02  -0.00   0.00    -0.25   0.27   0.13
                     43                     44                     45
                        a                      a                      a 
 Frequencies --   460.8533               466.0345               469.5406
 Red. masses --     3.8864                 7.8717                 7.1445
 Frc consts  --     0.0000                 0.0000                 0.0000
 IR Inten    --    21.3401                 6.9691                 8.6933
 Raman Activ --     0.0000                 0.0000                 0.0000
 Depolar     --     0.0000                 0.0000                 0.0000
 Atom AN      X      Y      Z        X      Y      Z        X      Y      Z
   1   8    -0.03  -0.00   0.00    -0.01   0.00  -0.01     0.05   0.01  -0.05
   2   6    -0.00   0.01  -0.01    -0.02  -0.01   0.04    -0.00  -0.03   0.04
   3   1    -0.00  -0.00   0.01    -0.01  -0.00   0.02     0.01  -0.00  -0.02
   4   1     0.01   0.01  -0.00    -0.00   0.01   0.02    -0.03  -0.01   0.02
   5   6    -0.01  -0.03  -0.02    -0.00  -0.06   0.04     0.03   0.15   0.09
   6   1     0.01  -0.03   0.01     0.03  -0.05   0.04    -0.09   0.15  -0.03
   7   1    -0.03  -0.02  -0.01    -0.05  -0.04  -0.01     0.15   0.12   0.08
   8   7     0.03   0.03  -0.02     0.07   0.10   0.03    -0.10  -0.21   0.07
   9   6    -0.04   0.01  -0.00    -0.10   0.03  -0.04     0.22  -0.12   0.01
  10   1    -0.03   0.02  -0.01    -0.05   0.04  -0.03     0.11  -0.09   0.00
  11   1    -0.02  -0.00   0.00    -0.04  -0.02  -0.01     0.09  -0.02  -0.00
  12   1    -0.01  -0.01   0.01    -0.03  -0.02  -0.01     0.07   0.05  -0.02
  13   6     0.03  -0.03  -0.00    -0.01  -0.09  -0.06    -0.08   0.21   0.01
  14   1     0.02  -0.02  -0.00     0.03  -0.05  -0.06    -0.08   0.11   0.03
  15   1    -0.01  -0.02   0.00    -0.04  -0.04  -0.00     0.08   0.09  -0.05
  16   1     0.01  -0.01  -0.00    -0.03  -0.05  -0.01    -0.04   0.09   0.01
  17   6     0.02   0.02   0.03     0.11   0.09  -0.00    -0.17  -0.09  -0.13
  18   1     0.01   0.01   0.01     0.03   0.03   0.01    -0.08  -0.05  -0.08
  19   1     0.01   0.01   0.02     0.02   0.02  -0.02    -0.05  -0.02  -0.05
  20   1    -0.00  -0.00   0.01     0.05   0.01  -0.00    -0.02   0.03  -0.04
  21   1     0.01   0.01  -0.04    -0.01  -0.00   0.01    -0.00  -0.01   0.02
  22   6    -0.05   0.09   0.04     0.01   0.05  -0.02    -0.00   0.10  -0.04
  23   8    -0.02   0.08   0.04    -0.04   0.04  -0.04    -0.04   0.09  -0.06
  24   7     0.04  -0.11  -0.15    -0.05  -0.06   0.02    -0.08  -0.10  -0.00
  25   1    -0.08   0.03   0.15     0.08  -0.11  -0.04     0.08  -0.14  -0.02
  26   1    -0.10   0.00   0.08    -0.11  -0.03   0.02    -0.14  -0.05  -0.01
  27   7     0.14  -0.11  -0.07     0.06  -0.00   0.05     0.09  -0.02   0.11
  28   1    -0.32   0.25   0.42     0.09  -0.03  -0.02     0.14  -0.03  -0.00
  29   1     0.04  -0.01  -0.01    -0.01  -0.02   0.05    -0.00  -0.07   0.05
  30   6     0.00   0.00   0.01     0.00  -0.00   0.03     0.00  -0.01   0.02
  31   8     0.00  -0.00   0.01     0.00  -0.00   0.03     0.01   0.00   0.03
  32   7    -0.01  -0.00  -0.01    -0.02  -0.03  -0.02    -0.02  -0.03  -0.01
  33   1     0.00   0.00  -0.01    -0.01   0.01  -0.03     0.01  -0.00  -0.02
  34   1    -0.00  -0.01  -0.00    -0.01  -0.03  -0.01    -0.02  -0.02  -0.00
  35   7     0.00   0.01  -0.00     0.01   0.03  -0.02     0.01   0.02  -0.02
  36   1     0.01  -0.00  -0.00     0.01   0.03  -0.00     0.02   0.02  -0.01
  37   1    -0.01   0.01   0.00    -0.00  -0.00  -0.03    -0.02   0.00  -0.02
  38   6    -0.03  -0.02   0.04    -0.10  -0.09   0.16    -0.05  -0.05   0.09
  39   8     0.00  -0.00   0.08     0.01  -0.04   0.25     0.00  -0.02   0.15
  40   7    -0.04  -0.04  -0.08    -0.13  -0.06  -0.25    -0.08  -0.03  -0.15
  41   1     0.02   0.02  -0.05     0.06   0.04  -0.14     0.01   0.05  -0.07
  42   1    -0.09   0.05  -0.04    -0.18  -0.00  -0.13    -0.06  -0.07  -0.08
  43   7     0.08   0.04  -0.02     0.21   0.14  -0.04     0.11   0.09  -0.02
  44   1     0.06   0.04   0.03     0.22   0.09   0.07     0.13   0.06   0.05
  45   1    -0.01   0.05  -0.07     0.01   0.11  -0.20     0.01   0.06  -0.12
  46   6     0.01   0.00   0.01    -0.10  -0.04  -0.13     0.06   0.03   0.06
  47   8     0.04   0.00   0.01    -0.15  -0.14  -0.04     0.05   0.07   0.05
  48   7    -0.19   0.20   0.05     0.11  -0.06   0.16    -0.09   0.05  -0.13
  49   1     0.17  -0.19  -0.05     0.18   0.09   0.08     0.14  -0.14  -0.07
  50   1     0.38  -0.28  -0.18    -0.10  -0.06   0.20    -0.15   0.14   0.01
  51   7     0.02  -0.10  -0.01     0.05   0.24  -0.09     0.01  -0.19   0.01
  52   1     0.00  -0.01  -0.01    -0.07   0.09  -0.02     0.15  -0.09  -0.01
  53   1    -0.10   0.05   0.01     0.26  -0.11  -0.02    -0.21   0.11   0.03
                     46                     47                     48
                        a                      a                      a 
 Frequencies --   472.2708               476.5654               489.9081
 Red. masses --     7.5511                 7.5132                 2.4991
 Frc consts  --     0.0000                 0.0000                 0.0000
 IR Inten    --     4.5641                40.6053                43.3363
 Raman Activ --     0.0000                 0.0000                 0.0000
 Depolar     --     0.0000                 0.0000                 0.0000
 Atom AN      X      Y      Z        X      Y      Z        X      Y      Z
   1   8     0.09   0.01  -0.05     0.02  -0.00  -0.04     0.02   0.00   0.01
   2   6    -0.06  -0.06   0.15    -0.09  -0.05   0.18    -0.03  -0.01   0.04
   3   1    -0.01  -0.00  -0.00    -0.02  -0.01   0.02    -0.01   0.01   0.00
   4   1    -0.07  -0.02   0.06    -0.07  -0.01   0.07    -0.02  -0.01   0.01
   5   6     0.04   0.11   0.25     0.03  -0.10   0.25     0.00   0.00   0.06
   6   1    -0.09   0.13   0.03     0.04  -0.07   0.11    -0.01   0.01   0.02
   7   1     0.14   0.10   0.11    -0.04  -0.06   0.03     0.01   0.01   0.02
   8   7     0.01  -0.14   0.17     0.14   0.14   0.18     0.04  -0.00   0.04
   9   6     0.13  -0.16  -0.09    -0.16  -0.03  -0.17    -0.02  -0.04  -0.05
  10   1     0.04  -0.04  -0.05    -0.10   0.07  -0.11    -0.03   0.01  -0.00
  11   1     0.07  -0.09  -0.04    -0.05  -0.12  -0.06     0.02  -0.03  -0.02
  12   1     0.02   0.01  -0.07    -0.07  -0.04  -0.07    -0.02  -0.01  -0.03
  13   6    -0.13   0.13  -0.13    -0.14  -0.14  -0.21    -0.02  -0.01  -0.05
  14   1    -0.06   0.08  -0.08     0.04  -0.06  -0.18     0.00  -0.00  -0.03
  15   1     0.04   0.06  -0.10    -0.08  -0.06  -0.06    -0.00  -0.00  -0.03
  16   1    -0.13   0.05  -0.02    -0.16  -0.08  -0.04    -0.03   0.00  -0.01
  17   6    -0.04   0.05  -0.20     0.23   0.22  -0.11     0.02   0.05  -0.03
  18   1    -0.07  -0.02  -0.11     0.03   0.05  -0.04    -0.01   0.01  -0.02
  19   1    -0.03   0.03  -0.11     0.03   0.05  -0.11     0.00   0.02  -0.02
  20   1     0.06   0.09  -0.06     0.14   0.09  -0.04     0.02   0.03  -0.01
  21   1     0.03  -0.00  -0.02    -0.00  -0.00   0.00     0.07   0.02  -0.11
  22   6    -0.02  -0.06   0.04     0.01   0.05  -0.02    -0.01  -0.06  -0.02
  23   8     0.02  -0.06   0.06    -0.03   0.04  -0.03     0.12  -0.02   0.03
  24   7     0.08   0.09  -0.03    -0.04  -0.04   0.02     0.02  -0.04  -0.11
  25   1    -0.02   0.07  -0.03     0.08  -0.10  -0.06    -0.44   0.41   0.47
  26   1     0.03   0.06   0.08    -0.07  -0.03  -0.01     0.32  -0.02  -0.18
  27   7    -0.03  -0.03  -0.11     0.04   0.00   0.05    -0.14   0.03   0.05
  28   1    -0.16   0.06   0.08     0.07  -0.02  -0.02    -0.00  -0.02  -0.03
  29   1    -0.00   0.05  -0.03     0.01  -0.03   0.01     0.01  -0.02  -0.05
  30   6     0.01  -0.01   0.08     0.01  -0.01   0.06     0.00  -0.00   0.01
  31   8     0.02  -0.00   0.09     0.01  -0.00   0.07     0.00  -0.00   0.01
  32   7    -0.05  -0.08  -0.04    -0.03  -0.07  -0.03    -0.01  -0.01  -0.01
  33   1     0.00   0.01  -0.06    -0.01   0.01  -0.05    -0.01   0.00  -0.01
  34   1    -0.04  -0.07  -0.01    -0.03  -0.06  -0.01    -0.00  -0.01  -0.00
  35   7     0.03   0.08  -0.05     0.02   0.07  -0.04     0.00   0.01  -0.01
  36   1     0.05   0.07  -0.01     0.03   0.06  -0.01     0.01   0.01  -0.00
[...]
  44   1     0.00   0.00  -0.01     0.00   0.00  -0.01     0.00   0.00  -0.00
  45   1    -0.01  -0.01  -0.00    -0.02  -0.01   0.00    -0.00  -0.00   0.00
  46   6    -0.00   0.00  -0.00     0.00   0.00   0.01     0.00  -0.00  -0.00
  47   8     0.00   0.00   0.00    -0.00  -0.00  -0.01    -0.00   0.00  -0.00
  48   7     0.00  -0.00   0.00    -0.00  -0.00  -0.01     0.01   0.01  -0.00
  49   1    -0.00   0.00  -0.00     0.00   0.00  -0.01    -0.00  -0.02   0.07
  50   1    -0.00   0.00   0.00     0.02   0.01   0.02    -0.05  -0.03  -0.05
  51   7    -0.01  -0.03  -0.03     0.05   0.13   0.18    -0.00  -0.00   0.00
  52   1     0.05   0.12   0.12    -0.26  -0.62  -0.65    -0.00  -0.00  -0.00
  53   1    -0.01  -0.02   0.00     0.08   0.12  -0.03     0.00   0.00  -0.00
                    142                    143                    144
                        a                      a                      a 
 Frequencies --  3484.8794              3499.5461              3502.8925
 Red. masses --     1.4552                 1.4459                 1.4371
 Frc consts  --     0.0000                 0.0000                 0.0000
 IR Inten    --    14.5292                24.9606                39.7307
 Raman Activ --     0.0000                 0.0000                 0.0000
 Depolar     --     0.0000                 0.0000                 0.0000
 Atom AN      X      Y      Z        X      Y      Z        X      Y      Z
   1   8    -0.00  -0.00  -0.00    -0.00  -0.00  -0.00     0.00   0.00   0.00
   2   6     0.00  -0.00  -0.00     0.00   0.00   0.00    -0.00  -0.00   0.00
   3   1    -0.00  -0.00   0.00    -0.00  -0.00  -0.00     0.00   0.00   0.00
   4   1    -0.00   0.00  -0.00     0.00   0.00  -0.00    -0.00   0.00  -0.00
   5   6    -0.00  -0.00  -0.00    -0.00  -0.00   0.00     0.00   0.00   0.00
   6   1     0.00   0.00   0.00     0.00   0.00   0.00    -0.00  -0.00   0.00
   7   1     0.00  -0.00   0.00     0.00   0.00   0.00    -0.00   0.00  -0.00
   8   7    -0.00   0.00   0.00     0.00   0.00   0.00     0.00   0.00   0.00
   9   6    -0.00  -0.00  -0.00    -0.00  -0.00  -0.00     0.00  -0.00   0.00
  10   1     0.00   0.00   0.00     0.00   0.00   0.00     0.00   0.00   0.00
  11   1    -0.00  -0.00  -0.00     0.00   0.00   0.00    -0.00  -0.00  -0.00
  12   1     0.00  -0.00  -0.00    -0.00   0.00   0.00    -0.00  -0.00   0.00
  13   6    -0.00  -0.00  -0.00    -0.00  -0.00  -0.00     0.00  -0.00   0.00
  14   1     0.00   0.00   0.00     0.00   0.00   0.00     0.00  -0.00   0.00
  15   1    -0.00  -0.00  -0.00     0.00   0.00   0.00    -0.00   0.00  -0.00
  16   1    -0.00  -0.00   0.00     0.00  -0.00   0.00    -0.00  -0.00  -0.00
  17   6     0.00   0.00  -0.00    -0.00   0.00  -0.00    -0.00  -0.00  -0.00
  18   1    -0.00  -0.00  -0.00     0.00   0.00   0.00    -0.00   0.00  -0.00
  19   1     0.00  -0.00  -0.00     0.00   0.00   0.00     0.00  -0.00  -0.00
  20   1    -0.00  -0.00   0.00    -0.00  -0.00   0.00    -0.00  -0.00   0.00
  21   1     0.00   0.00   0.00     0.00   0.00   0.00    -0.00  -0.00  -0.00
  22   6    -0.00   0.00  -0.00     0.00   0.00   0.00     0.00  -0.00   0.00
  23   8    -0.00  -0.00   0.00    -0.00   0.00  -0.00     0.00   0.00  -0.00
  24   7    -0.02   0.00  -0.01    -0.00   0.00  -0.00     0.00  -0.00   0.00
  25   1     0.06   0.06   0.01     0.00   0.00   0.00    -0.00  -0.00  -0.00
  26   1     0.01  -0.06   0.02     0.00  -0.00   0.00    -0.00   0.00  -0.00
  27   7     0.00  -0.00   0.00    -0.00  -0.00  -0.00    -0.00  -0.00  -0.00
  28   1     0.00   0.01  -0.00    -0.00   0.01  -0.00    -0.00   0.00  -0.00
  29   1    -0.01   0.00  -0.01     0.01  -0.00   0.01     0.00  -0.00   0.00
  30   6    -0.00  -0.00   0.00     0.00  -0.00   0.00    -0.00   0.00   0.00
  31   8    -0.00   0.00  -0.00    -0.00  -0.00  -0.00     0.00   0.00  -0.00
  32   7    -0.00  -0.00   0.00    -0.00  -0.00   0.00     0.02   0.10  -0.07
  33   1     0.00   0.00   0.00     0.00   0.00   0.00    -0.18  -0.35  -0.23
  34   1    -0.00   0.00  -0.00    -0.00   0.00  -0.00     0.10  -0.04   0.51
  35   7    -0.00  -0.00  -0.00    -0.00  -0.00  -0.00     0.04   0.09   0.08
  36   1     0.00  -0.00   0.00     0.00  -0.00   0.00    -0.04   0.04  -0.52
  37   1     0.00   0.00  -0.00     0.00   0.00  -0.00    -0.11  -0.39   0.22
  38   6    -0.00  -0.00   0.00     0.00  -0.00   0.00    -0.00  -0.00   0.00
  39   8     0.00   0.00   0.00     0.00   0.00  -0.00     0.00   0.00  -0.00
  40   7     0.00   0.00   0.00     0.00   0.00  -0.01    -0.00  -0.00  -0.00
  41   1    -0.00  -0.00  -0.00     0.01   0.00   0.01     0.00   0.00   0.00
  42   1    -0.00  -0.00   0.00    -0.02  -0.01   0.04     0.00   0.00  -0.00
  43   7     0.00   0.00   0.00     0.09   0.02   0.16     0.00   0.00   0.00
  44   1     0.00   0.00  -0.00     0.23   0.31  -0.59     0.00   0.00  -0.00
  45   1    -0.00  -0.00   0.00    -0.56  -0.38   0.01    -0.00  -0.00   0.00
  46   6     0.00   0.00  -0.00     0.00   0.00   0.00     0.00  -0.00   0.00
  47   8    -0.00  -0.00  -0.00    -0.00  -0.00  -0.00    -0.00   0.00  -0.00
  48   7     0.13   0.13  -0.03    -0.00  -0.00  -0.00     0.00   0.00   0.00
  49   1    -0.02  -0.16   0.60    -0.00  -0.00   0.00     0.00  -0.00   0.00
  50   1    -0.47  -0.32  -0.50     0.00   0.00   0.00    -0.00  -0.00  -0.00
  51   7    -0.00  -0.01   0.01     0.00   0.00  -0.00    -0.00  -0.00  -0.00
  52   1    -0.01  -0.01  -0.01     0.00   0.01   0.01     0.00   0.00   0.00
  53   1     0.02   0.03  -0.01    -0.01  -0.02   0.01     0.00   0.00  -0.00
                    145                    146                    147
                        a                      a                      a 
 Frequencies --  3507.4382              3513.9334              3531.9802
 Red. masses --     1.4616                 1.9081                 1.9086
 Frc consts  --     0.0000                 0.0000                 0.0000
 IR Inten    --     8.6130                12.5234                18.5022
 Raman Activ --     0.0000                 0.0000                 0.0000
 Depolar     --     0.0000                 0.0000                 0.0000
 Atom AN      X      Y      Z        X      Y      Z        X      Y      Z
   1   8    -0.00  -0.00  -0.00     0.00   0.00   0.00     0.00   0.00   0.00
   2   6    -0.00  -0.00   0.00     0.00  -0.00   0.00     0.00  -0.00  -0.00
   3   1     0.00   0.00   0.00    -0.00  -0.00  -0.00     0.00   0.00   0.00
   4   1     0.00   0.00  -0.00     0.00   0.00  -0.00    -0.00  -0.00  -0.00
   5   6     0.00  -0.00   0.00     0.00   0.00   0.00    -0.00  -0.00  -0.00
   6   1     0.00   0.00   0.00    -0.00  -0.00  -0.00     0.00   0.00  -0.00
   7   1    -0.00   0.00  -0.00    -0.00   0.00   0.00    -0.00   0.00  -0.00
   8   7     0.00   0.00   0.00    -0.00  -0.00  -0.00    -0.00  -0.00  -0.00
   9   6    -0.00  -0.00  -0.00     0.00   0.00   0.00    -0.00  -0.00   0.00
  10   1    -0.00   0.00  -0.00    -0.00  -0.00  -0.00     0.00   0.00  -0.00
  11   1     0.00   0.00   0.00     0.00   0.00   0.00    -0.00  -0.00  -0.00
  12   1     0.00  -0.00  -0.00    -0.00   0.00   0.00    -0.00  -0.00  -0.00
  13   6    -0.00   0.00  -0.00     0.00   0.00   0.00     0.00  -0.00   0.00
  14   1     0.00   0.00  -0.00    -0.00  -0.00  -0.00     0.00   0.00   0.00
  15   1    -0.00   0.00  -0.00     0.00   0.00   0.00    -0.00   0.00  -0.00
  16   1     0.00  -0.00   0.00     0.00   0.00   0.00    -0.00  -0.00  -0.00
  17   6    -0.00   0.00  -0.00     0.00   0.00  -0.00     0.00  -0.00   0.00
  18   1    -0.00   0.00  -0.00     0.00   0.00   0.00    -0.00  -0.00  -0.00
  19   1     0.00  -0.00  -0.00     0.00   0.00   0.00    -0.00  -0.00   0.00
  20   1    -0.00  -0.00   0.00     0.00   0.00  -0.00    -0.00   0.00  -0.00
  21   1     0.00   0.00   0.00    -0.00  -0.00  -0.00    -0.00  -0.00  -0.00
  22   6     0.00   0.00   0.00    -0.00  -0.00  -0.00    -0.00   0.00  -0.00
  23   8    -0.00  -0.00  -0.00     0.00   0.00  -0.00     0.00  -0.00   0.00
  24   7    -0.00   0.00  -0.00    -0.00  -0.00   0.00    -0.00  -0.01   0.00
  25   1     0.00   0.00   0.00     0.00   0.00   0.00     0.01   0.01   0.00
  26   1     0.00  -0.00   0.00    -0.00   0.00  -0.00    -0.00   0.02  -0.01
  27   7    -0.00  -0.00   0.00     0.00  -0.00   0.00    -0.00   0.02  -0.01
  28   1     0.00   0.00  -0.00     0.00   0.00  -0.00    -0.00  -0.07   0.04
  29   1     0.00  -0.00   0.00    -0.01   0.00  -0.00     0.01  -0.00   0.01
  30   6     0.00  -0.00   0.00    -0.00  -0.00   0.00    -0.00  -0.00  -0.00
  31   8    -0.00   0.00  -0.01     0.00   0.00  -0.00     0.00   0.00   0.00
  32   7    -0.02  -0.11   0.07     0.00   0.00  -0.00    -0.00  -0.00  -0.00
  33   1     0.18   0.36   0.24    -0.00  -0.00  -0.00     0.00   0.00   0.00
  34   1    -0.10   0.04  -0.50     0.00  -0.00   0.00     0.00  -0.00   0.00
  35   7     0.04   0.10   0.08    -0.00  -0.00  -0.00     0.00   0.00   0.00
  36   1    -0.04   0.03  -0.50     0.00  -0.00   0.00    -0.00   0.00  -0.00
  37   1    -0.12  -0.39   0.22     0.00   0.00  -0.00    -0.00  -0.00   0.00
  38   6     0.00   0.00   0.00    -0.00  -0.00   0.00    -0.00  -0.00  -0.01
  39   8     0.00  -0.00  -0.00     0.00   0.00  -0.00    -0.00  -0.00   0.00
  40   7    -0.00  -0.00   0.00     0.00   0.00  -0.00     0.09   0.07  -0.23
  41   1     0.00   0.00   0.00    -0.00  -0.00  -0.00     0.06   0.02   0.07
  42   1     0.00   0.00  -0.00    -0.01  -0.01   0.02    -0.40  -0.29   0.82
  43   7     0.00   0.00  -0.00    -0.00   0.00  -0.00    -0.02  -0.01   0.00
  44   1    -0.00  -0.00   0.00    -0.01  -0.01   0.02     0.00   0.01  -0.01
  45   1    -0.00  -0.00  -0.00     0.01   0.01  -0.00     0.07   0.05   0.00
  46   6     0.00   0.00   0.00     0.01   0.01  -0.00    -0.00  -0.00   0.00
  47   8    -0.00  -0.00  -0.00     0.00  -0.00   0.00    -0.00  -0.00  -0.00
  48   7    -0.00  -0.00  -0.00    -0.00   0.00  -0.01    -0.00   0.00  -0.00
  49   1    -0.00  -0.00   0.00    -0.00  -0.01   0.05    -0.00  -0.00   0.00
  50   1     0.00   0.00   0.00    -0.00  -0.00  -0.00     0.00   0.00   0.00
  51   7     0.00   0.00  -0.00     0.14   0.21  -0.06    -0.00  -0.00   0.00
  52   1    -0.00  -0.00  -0.00    -0.02  -0.07  -0.10    -0.00   0.00   0.00
  53   1    -0.00  -0.00   0.00    -0.52  -0.74   0.31     0.01   0.02  -0.01
                    148                    149                    150
                        a                      a                      a 
 Frequencies --  3534.2971              3550.7684              3552.0808
 Red. masses --     1.9012                 2.1589                 2.1750
 Frc consts  --     0.0000                 0.0000                 0.0000
 IR Inten    --    10.9245                25.2293                12.9574
 Raman Activ --     0.0000                 0.0000                 0.0000
 Depolar     --     0.0000                 0.0000                 0.0000
 Atom AN      X      Y      Z        X      Y      Z        X      Y      Z
   1   8    -0.00   0.00   0.00     0.00   0.00   0.00    -0.00  -0.00  -0.00
   2   6     0.00  -0.00  -0.00    -0.00   0.00   0.00     0.00  -0.00   0.00
   3   1    -0.00   0.00   0.00     0.00   0.00   0.00    -0.00  -0.00  -0.00
   4   1    -0.00   0.00  -0.00     0.00  -0.00   0.00     0.00   0.00  -0.00
   5   6    -0.00  -0.00   0.00     0.00   0.00  -0.00     0.00   0.00   0.00
   6   1     0.00   0.00  -0.00     0.00  -0.00  -0.00    -0.00  -0.00   0.00
   7   1     0.00  -0.00   0.00     0.00  -0.00   0.00     0.00   0.00   0.00
   8   7    -0.00   0.00   0.00     0.00  -0.00  -0.00    -0.00  -0.00  -0.00
   9   6    -0.00  -0.00   0.00     0.00  -0.00  -0.00     0.00   0.00   0.00
  10   1     0.00   0.00   0.00     0.00   0.00  -0.00    -0.00  -0.00  -0.00
  11   1    -0.00  -0.00  -0.00     0.00   0.00   0.00     0.00   0.00  -0.00
  12   1     0.00  -0.00  -0.00    -0.00   0.00   0.00     0.00   0.00  -0.00
  13   6    -0.00  -0.00  -0.00     0.00   0.00  -0.00     0.00   0.00   0.00
  14   1     0.00   0.00   0.00    -0.00  -0.00  -0.00    -0.00  -0.00  -0.00
  15   1     0.00  -0.00  -0.00     0.00  -0.00   0.00     0.00   0.00   0.00
  16   1     0.00  -0.00   0.00     0.00   0.00   0.00     0.00   0.00  -0.00
  17   6     0.00  -0.00  -0.00    -0.00   0.00  -0.00     0.00  -0.00   0.00
  18   1    -0.00  -0.00  -0.00     0.00  -0.00   0.00     0.00   0.00   0.00
  19   1    -0.00  -0.00  -0.00    -0.00   0.00   0.00     0.00   0.00   0.00
  20   1    -0.00  -0.00   0.00     0.00   0.00   0.00    -0.00   0.00  -0.00
  21   1     0.00   0.00   0.00    -0.01  -0.01  -0.00     0.00   0.00   0.00
  22   6    -0.00   0.00  -0.01     0.00   0.01  -0.00     0.00  -0.00   0.00
  23   8     0.00  -0.00   0.00    -0.00  -0.00   0.00    -0.00   0.00  -0.00
  24   7    -0.02  -0.05   0.01     0.08   0.28  -0.06    -0.00  -0.02   0.00
  25   1     0.08   0.07   0.01    -0.42  -0.36  -0.07     0.03   0.02   0.00
  26   1    -0.02   0.10  -0.04     0.11  -0.69   0.28    -0.01   0.04  -0.02
  27   7    -0.01   0.21  -0.14    -0.00   0.03  -0.02     0.00  -0.00   0.00
  28   1    -0.01  -0.80   0.51    -0.00  -0.13   0.08     0.00   0.01  -0.01
  29   1     0.06   0.00   0.04     0.01   0.00   0.01    -0.00   0.00  -0.00
  30   6    -0.00  -0.00   0.00    -0.00  -0.00   0.00     0.00   0.00  -0.00
  31   8    -0.00   0.00  -0.00     0.00   0.00  -0.00    -0.00  -0.00   0.00
  32   7    -0.00  -0.00  -0.00    -0.00  -0.00  -0.00     0.00   0.00   0.00
  33   1     0.00   0.00   0.00     0.00   0.00   0.00    -0.00  -0.00  -0.00
  34   1     0.00  -0.00   0.00     0.00  -0.00   0.00    -0.00   0.00  -0.00
  35   7     0.00   0.00   0.00    -0.00  -0.00  -0.00    -0.00   0.00  -0.00
  36   1    -0.00   0.00  -0.00     0.00  -0.00   0.00     0.00  -0.00   0.00
  37   1    -0.00  -0.00   0.00    -0.00   0.00   0.00    -0.00  -0.00   0.00
  38   6     0.00   0.00  -0.00     0.00   0.00  -0.00    -0.00  -0.00   0.00
  39   8    -0.00  -0.00   0.00     0.00  -0.00   0.00     0.00   0.00  -0.00
  40   7    -0.01  -0.01   0.02     0.00   0.00  -0.00     0.00   0.00  -0.00
  41   1    -0.01  -0.00  -0.00     0.00   0.00   0.01    -0.00  -0.00  -0.00
  42   1     0.03   0.03  -0.07    -0.01  -0.00   0.01    -0.00  -0.00   0.00
  43   7     0.00   0.00   0.00    -0.00  -0.00   0.00    -0.00  -0.00  -0.00
  44   1     0.00   0.00  -0.01     0.00   0.00  -0.00     0.00   0.00  -0.00
  45   1    -0.01  -0.00  -0.00     0.00   0.00   0.00     0.00   0.00   0.00
  46   6     0.00   0.00  -0.00     0.00   0.00   0.00     0.00   0.00   0.01
  47   8     0.00  -0.00  -0.00    -0.00   0.00  -0.00    -0.00   0.00  -0.00
  48   7     0.00   0.00   0.00     0.01   0.00   0.02     0.09   0.02   0.28
  49   1    -0.00  -0.00   0.00     0.00   0.01  -0.04     0.05   0.21  -0.70
  50   1    -0.01  -0.00  -0.00    -0.03  -0.02  -0.03    -0.39  -0.26  -0.38
  51   7     0.00   0.00  -0.00     0.00   0.00  -0.00     0.01   0.01  -0.00
  52   1     0.00   0.00   0.00     0.00  -0.00  -0.00    -0.01  -0.01  -0.02
  53   1    -0.00  -0.01   0.00    -0.00  -0.01   0.00    -0.02  -0.03   0.01
                    151                    152                    153
                        a                      a                      a 
 Frequencies --  3566.7401              3568.1426              3573.7601
 Red. masses --     2.1881                 2.1920                 2.1792
 Frc consts  --     0.0000                 0.0000                 0.0000
 IR Inten    --    17.8394                13.7974                11.9468
 Raman Activ --     0.0000                 0.0000                 0.0000
 Depolar     --     0.0000                 0.0000                 0.0000
 Atom AN      X      Y      Z        X      Y      Z        X      Y      Z
   1   8    -0.00  -0.00  -0.00     0.00   0.00   0.00     0.00   0.00   0.00
   2   6     0.00   0.00   0.00    -0.00  -0.00   0.00    -0.00  -0.00  -0.00
   3   1    -0.00  -0.00  -0.00     0.00   0.00   0.00     0.00   0.00  -0.00
   4   1     0.00   0.00   0.00    -0.00   0.00  -0.00     0.00  -0.00   0.00
   5   6     0.00   0.00   0.00     0.00   0.00   0.00     0.00   0.00  -0.00
   6   1    -0.00  -0.00   0.00    -0.00  -0.00  -0.00    -0.00  -0.00  -0.00
   7   1    -0.00   0.00   0.00    -0.00   0.00  -0.00     0.00   0.00   0.00
   8   7     0.00   0.00   0.00    -0.00   0.00  -0.00    -0.00   0.00  -0.00
   9   6     0.00   0.00   0.00     0.00  -0.00   0.00     0.00   0.00   0.00
  10   1    -0.00  -0.00  -0.00     0.00  -0.00   0.00    -0.00  -0.00   0.00
  11   1     0.00   0.00  -0.00    -0.00  -0.00  -0.00    -0.00  -0.00  -0.00
  12   1     0.00   0.00   0.00    -0.00  -0.00   0.00     0.00  -0.00   0.00
  13   6     0.00   0.00   0.00     0.00   0.00   0.00     0.00  -0.00   0.00
  14   1    -0.00  -0.00  -0.00    -0.00  -0.00  -0.00    -0.00  -0.00   0.00
  15   1     0.00   0.00   0.00    -0.00  -0.00   0.00    -0.00   0.00   0.00
  16   1     0.00   0.00  -0.00     0.00   0.00  -0.00    -0.00   0.00  -0.00
  17   6     0.00  -0.00   0.00    -0.00   0.00  -0.00    -0.00  -0.00   0.00
  18   1    -0.00   0.00  -0.00    -0.00   0.00  -0.00     0.00  -0.00   0.00
  19   1     0.00   0.00   0.00     0.00  -0.00  -0.00     0.00   0.00   0.00
  20   1     0.00   0.00  -0.00     0.00  -0.00   0.00     0.00   0.00  -0.00
  21   1     0.00   0.00   0.00    -0.00  -0.00  -0.00    -0.00  -0.00  -0.00
  22   6    -0.00  -0.00   0.00     0.00  -0.00   0.00     0.00  -0.00   0.00
  23   8     0.00   0.00  -0.00     0.00   0.00  -0.00     0.00   0.00  -0.00
  24   7    -0.00  -0.00   0.00     0.00   0.00  -0.00     0.00   0.00  -0.00
  25   1     0.00   0.00   0.00    -0.00  -0.00  -0.00    -0.00  -0.00  -0.00
  26   1    -0.00   0.00  -0.00     0.00  -0.00   0.00     0.00  -0.00   0.00
  27   7     0.00  -0.00   0.00    -0.00   0.00  -0.00    -0.00   0.00  -0.00
  28   1     0.00   0.01  -0.00    -0.00  -0.00   0.00    -0.00  -0.00   0.00
  29   1    -0.01   0.00  -0.00     0.00  -0.00   0.00     0.00  -0.00   0.00
  30   6     0.00   0.00  -0.00     0.00   0.01  -0.00     0.00   0.00   0.01
  31   8     0.00  -0.00   0.00    -0.00  -0.00   0.00    -0.00  -0.00  -0.00
  32   7     0.00   0.00   0.00     0.06   0.08   0.16     0.08   0.10   0.20
  33   1    -0.00  -0.00  -0.00    -0.17  -0.36  -0.22    -0.21  -0.43  -0.26
  34   1    -0.00   0.00  -0.00    -0.07   0.04  -0.38    -0.09   0.06  -0.49
  35   7     0.00   0.00  -0.00     0.03   0.13  -0.19    -0.02  -0.10   0.16
  36   1     0.00  -0.00   0.00     0.04  -0.01   0.49    -0.03   0.01  -0.40
  37   1    -0.00  -0.00   0.00    -0.14  -0.48   0.25     0.11   0.38  -0.19
  38   6    -0.01  -0.01   0.00     0.00  -0.00   0.00    -0.00  -0.00   0.00
  39   8     0.00   0.00  -0.00    -0.00   0.00  -0.00     0.00   0.00  -0.00
  40   7    -0.01  -0.00   0.02    -0.00   0.00  -0.00     0.00   0.00  -0.00
  41   1    -0.01  -0.00  -0.01     0.00   0.00   0.00     0.00  -0.00   0.00
  42   1     0.03   0.02  -0.06    -0.00  -0.00   0.00    -0.00  -0.00   0.00
  43   7    -0.20  -0.17   0.15     0.00   0.00  -0.00    -0.00  -0.00   0.00
  44   1     0.19   0.28  -0.57    -0.00  -0.00   0.00     0.00   0.00  -0.00
  45   1     0.57   0.38   0.02    -0.00  -0.00  -0.00     0.00   0.00   0.00
  46   6    -0.00   0.00  -0.00     0.00  -0.00   0.00    -0.00  -0.00   0.00
  47   8     0.00   0.00   0.00    -0.00   0.00  -0.00     0.00   0.00  -0.00
  48   7    -0.00   0.00  -0.00    -0.00   0.00  -0.00    -0.00   0.00  -0.00
  49   1    -0.00  -0.00   0.00    -0.00  -0.00   0.00    -0.00  -0.00   0.00
  50   1     0.00   0.00   0.00     0.00   0.00   0.00     0.00   0.00   0.00
  51   7     0.00   0.00   0.00    -0.00   0.00  -0.00    -0.00  -0.00  -0.00
  52   1    -0.00  -0.01  -0.01     0.00   0.00   0.00     0.00   0.00   0.00
  53   1    -0.00  -0.00   0.00    -0.00  -0.00   0.00     0.00   0.00  -0.00
