 Entering Gaussian System
 *********************************************
 Gaussian 98:
 frequency output generated by the xtb code
 *********************************************
                         Standard orientation:
 --------------------------------------------------------------------
  Center     Atomic     Atomic              Coordinates (Angstroms)
  Number     Number      Type              X           Y           Z
 --------------------------------------------------------------------
    1          8             0        1.963924   -0.725300   -0.408448
    2          6             0        1.159345   -1.668018    0.250595
    3          1             0        1.279094   -2.655433   -0.220000
    4          1             0        1.450229   -1.764057    1.301441
    5          6             0       -0.319321   -1.256440    0.262147
    6          1             0       -0.434606   -0.361320    0.875687
    7          1             0       -0.878723   -2.072219    0.724151
    8          7             0       -0.927208   -0.963371   -1.062488
    9          6             0       -0.499510    0.361295   -1.545548
   10          1             0       -0.874946    1.121255   -0.864564
   11          1             0       -0.917670    0.518174   -2.538049
   12          1             0        0.586435    0.398651   -1.577722
   13          6             0       -2.391837   -0.928018   -0.912050
   14          1             0       -2.654814   -0.175376   -0.169006
   15          1             0       -2.766319   -1.899878   -0.597545
   16          1             0       -2.830385   -0.667061   -1.874147
   17          6             0       -0.567627   -1.973562   -2.068208
   18          1             0        0.498969   -1.924055   -2.272377
   19          1             0       -1.118934   -1.754629   -2.982517
   20          1             0       -0.828619   -2.968585   -1.713136
   21          1             0        2.814637   -0.647127    0.068467
   22          6             0        4.192139   -1.028035    2.404651
   23          8             0        4.131551   -0.552620    1.267419
   24          7             0        3.185186   -0.884052    3.285350
   25          1             0        2.415895   -0.255077    3.036686
   26          1             0        3.287745   -1.166958    4.242695
   27          7             0        5.261120   -1.754940    2.799982
   28          1             0        5.357201   -2.112082    3.732412
   29          1             0        6.025716   -1.865869    2.158470
   30          6             0        1.453826    1.681763    1.525898
   31          8             0        1.157426    0.801989    2.348694
   32          7             0        2.729409    1.909972    1.160095
   33          1             0        3.398463    1.155934    1.300245
   34          1             0        2.921124    2.536866    0.398512
   35          7             0        0.505455    2.482350    1.002774
   36          1             0        0.734969    3.196550    0.336909
   37          1             0       -0.471645    2.262878    1.176023
   38          6             0       -2.920818   -0.091202   -5.088007
   39          8             0       -2.397686   -0.364723   -4.016207
   40          7             0       -3.746098    0.972595   -5.235871
   41          1             0       -4.001695    1.500340   -4.420825
   42          1             0       -4.247624    1.144381   -6.087719
   43          7             0       -2.712833   -0.830108   -6.203360
   44          1             0       -3.069949   -0.554878   -7.099691
   45          1             0       -2.041070   -1.575616   -6.170953
   46          6             0       -2.356469    1.181519    2.505882
   47          8             0       -2.080419    1.328556    1.312007
   48          7             0       -1.415716    0.900700    3.419074
   49          1             0       -0.437899    0.844187    3.118995
   50          1             0       -1.635930    0.812275    4.393588
   51          7             0       -3.641138    1.239416    2.940529
   52          1             0       -3.861231    1.259973    3.919823
   53          1             0       -4.342366    1.563693    2.298175
 --------------------------------------------------------------------
     1 basis functions        1 primitive gaussians
     1 alpha electrons        1 beta electrons

 Harmonic frequencies (cm**-1), IR intensities (km*mol⁻¹),
 Raman scattering activities (A**4/amu), Raman depolarization ratios,
 reduced masses (AMU), force constants (mDyne/A) and normal coordinates:
                      1                      2                      3
                        a                      a                      a 
 Frequencies --     1.7337                17.4856                19.2626
 Red. masses --    11.1288                11.9283                12.0444
 Frc consts  --     0.0000                 0.0000                 0.0000
 IR Inten    --     0.0064                 1.5514                 2.6496
 Raman Activ --     0.0000                 0.0000                 0.0000
 Depolar     --     0.0000                 0.0000                 0.0000
 Atom AN      X      Y      Z        X      Y      Z        X      Y      Z
   1   8    -0.01  -0.03   0.00    -0.14   0.05   0.01    -0.08  -0.24  -0.01
   2   6    -0.02  -0.01   0.01    -0.12   0.07   0.04    -0.07  -0.14   0.08
   3   1    -0.01  -0.00   0.01    -0.04   0.02   0.02    -0.03  -0.05   0.04
   4   1    -0.01  -0.00   0.00    -0.03   0.03   0.01    -0.01  -0.02   0.02
   5   6    -0.02   0.01   0.01    -0.12   0.08   0.04    -0.06  -0.11   0.09
   6   1    -0.00   0.00   0.00    -0.03   0.02   0.01    -0.01  -0.03   0.02
   7   1    -0.01   0.01   0.00    -0.04   0.02   0.01    -0.02  -0.02   0.04
   8   7    -0.01   0.02   0.01    -0.13   0.09   0.04    -0.07  -0.15   0.09
   9   6     0.00   0.01   0.00    -0.11   0.08   0.04    -0.06  -0.16   0.05
  10   1     0.00   0.00   0.00    -0.03   0.02   0.01    -0.01  -0.04   0.01
  11   1     0.00   0.00   0.00    -0.03   0.02   0.01    -0.02  -0.05   0.01
  12   1     0.00  -0.00   0.00    -0.03   0.02   0.01    -0.02  -0.05   0.01
  13   6    -0.01   0.03   0.00    -0.12   0.09   0.04    -0.07  -0.12   0.09
  14   1    -0.00   0.01   0.00    -0.03   0.02   0.01    -0.02  -0.03   0.02
  15   1    -0.01   0.01   0.00    -0.04   0.03   0.01    -0.02  -0.03   0.03
  16   1    -0.00   0.01   0.00    -0.03   0.03   0.01    -0.02  -0.04   0.02
  17   6    -0.02   0.01   0.01    -0.12   0.08   0.04    -0.08  -0.17   0.11
  18   1    -0.01  -0.00   0.00    -0.03   0.02   0.02    -0.02  -0.05   0.03
  19   1    -0.01   0.00   0.00    -0.03   0.03   0.01    -0.02  -0.05   0.03
  20   1    -0.01   0.00   0.00    -0.04   0.02   0.01    -0.03  -0.05   0.04
  21   1    -0.00  -0.01   0.00    -0.03   0.01  -0.01    -0.02  -0.04  -0.01
  22   6    -0.01  -0.03  -0.00     0.03  -0.02  -0.13     0.02   0.10  -0.05
  23   8    -0.01  -0.04  -0.01    -0.04  -0.01  -0.14    -0.03   0.01  -0.10
  24   7    -0.01  -0.02  -0.00     0.09  -0.01  -0.07     0.04   0.14  -0.04
  25   1     0.00  -0.00  -0.00     0.02  -0.00  -0.00     0.00   0.03  -0.02
  26   1    -0.00  -0.00   0.00     0.04  -0.01  -0.02     0.02   0.06  -0.00
  27   7    -0.02  -0.04  -0.00     0.04  -0.06  -0.23     0.06   0.19  -0.02
  28   1    -0.01  -0.01  -0.00     0.03  -0.02  -0.06     0.03   0.07   0.00
  29   1    -0.01  -0.02  -0.00    -0.00  -0.01  -0.07     0.01   0.04  -0.01
  30   6     0.02  -0.00  -0.01    -0.01   0.00   0.04    -0.06  -0.00  -0.15
  31   8     0.01   0.00  -0.00     0.04  -0.00   0.06    -0.02   0.04  -0.12
  32   7     0.02  -0.02  -0.02    -0.02   0.01  -0.01    -0.08  -0.03  -0.25
  33   1     0.00  -0.01  -0.00    -0.00   0.00  -0.01    -0.02  -0.01  -0.06
  34   1     0.01  -0.01  -0.01    -0.02   0.00  -0.00    -0.03  -0.02  -0.08
  35   7     0.03   0.01  -0.01    -0.03  -0.00   0.09    -0.09  -0.02  -0.14
  36   1     0.01  -0.00  -0.00    -0.02   0.00   0.02    -0.03  -0.01  -0.05
  37   1     0.01   0.00  -0.00    -0.01  -0.00   0.03    -0.02  -0.00  -0.02
  38   6    -0.00  -0.01  -0.01     0.15  -0.08  -0.13     0.15   0.14   0.06
  39   8     0.00   0.03   0.00    -0.02   0.05  -0.03     0.03  -0.06   0.08
  40   7    -0.50  -0.39   0.10     0.21  -0.08  -0.41     0.27   0.24   0.14
  41   1    -0.22  -0.18   0.04     0.02   0.01  -0.14     0.05   0.03   0.05
  42   1    -0.13  -0.12   0.02     0.09  -0.05  -0.14     0.10   0.11   0.03
  43   7     0.49   0.30  -0.13     0.31  -0.23  -0.02     0.24   0.32  -0.03
  44   1     0.12   0.08  -0.03     0.12  -0.09  -0.03     0.09   0.13  -0.01
  45   1     0.23   0.17  -0.05     0.08  -0.07   0.05     0.04   0.07  -0.02
  46   6     0.02   0.04   0.01     0.03  -0.02   0.17    -0.01   0.00   0.03
  47   8     0.02   0.03   0.01    -0.02  -0.01   0.19    -0.06  -0.04   0.01
  48   7     0.02   0.04   0.01     0.07  -0.04   0.14     0.02   0.07   0.01
  49   1     0.00   0.01   0.00     0.01  -0.01   0.03     0.00   0.02  -0.01
  50   1     0.01   0.01   0.00     0.03  -0.01   0.04     0.02   0.03   0.00
  51   7     0.02   0.06   0.02     0.05  -0.03   0.24    -0.00  -0.01   0.07
  52   1     0.01   0.02   0.00     0.02  -0.01   0.07     0.01   0.01   0.02
  53   1     0.01   0.02   0.00     0.01  -0.01   0.07    -0.01  -0.01   0.02
                      4                      5                      6
                        a                      a                      a 
 Frequencies --    34.6459                39.3667                40.3799
 Red. masses --    12.1263                12.0917                12.5067
 Frc consts  --     0.0000                 0.0000                 0.0000
 IR Inten    --     0.4043                 1.3784                 1.2283
 Raman Activ --     0.0000                 0.0000                 0.0000
 Depolar     --     0.0000                 0.0000                 0.0000
 Atom AN      X      Y      Z        X      Y      Z        X      Y      Z
   1   8     0.06  -0.30  -0.05     0.19  -0.13  -0.23    -0.06   0.12   0.07
   2   6    -0.06  -0.16  -0.03     0.21  -0.14  -0.19    -0.02   0.02  -0.03
   3   1    -0.05  -0.05  -0.01     0.04  -0.03  -0.08     0.01   0.02  -0.03
   4   1    -0.02  -0.05  -0.01     0.09  -0.07  -0.07    -0.01  -0.01  -0.01
   5   6    -0.02   0.02  -0.04     0.21  -0.12  -0.02    -0.04  -0.06  -0.04
   6   1     0.02   0.01  -0.01     0.08  -0.05   0.02    -0.03  -0.03  -0.01
   7   1    -0.03   0.02  -0.01     0.07  -0.04  -0.01    -0.00  -0.03  -0.02
   8   7     0.02   0.10  -0.04     0.11  -0.03   0.06    -0.05  -0.06  -0.05
   9   6     0.20   0.03  -0.06     0.06   0.00   0.10    -0.08  -0.04  -0.02
  10   1     0.09   0.02  -0.02     0.03  -0.01   0.05    -0.03  -0.02  -0.00
  11   1     0.06   0.02  -0.02    -0.00   0.02   0.04    -0.02  -0.01  -0.01
  12   1     0.06  -0.03  -0.02     0.02   0.00   0.01    -0.02  -0.00  -0.00
  13   6     0.02   0.29  -0.04     0.11  -0.04   0.17    -0.05  -0.10  -0.05
  14   1     0.04   0.09  -0.01     0.05  -0.02   0.06    -0.02  -0.03  -0.01
  15   1    -0.03   0.10  -0.01     0.04  -0.02   0.04    -0.01  -0.03  -0.02
  16   1     0.02   0.10  -0.01     0.01   0.00   0.06    -0.02  -0.03  -0.01
  17   6    -0.12   0.03  -0.03     0.02   0.04  -0.04    -0.02  -0.03  -0.06
  18   1    -0.03  -0.03  -0.01     0.00   0.02  -0.04    -0.01   0.00  -0.02
  19   1    -0.03   0.03  -0.01    -0.02   0.03   0.00    -0.01  -0.01  -0.02
  20   1    -0.07   0.02  -0.01     0.02   0.00  -0.03     0.00  -0.01  -0.02
  21   1     0.00  -0.07   0.01     0.04   0.00  -0.04    -0.01   0.02   0.01
  22   6     0.03   0.07   0.11    -0.09  -0.02  -0.09     0.13   0.04  -0.00
  23   8    -0.01  -0.09   0.06     0.01   0.13  -0.05     0.07  -0.00  -0.02
  24   7    -0.06  -0.02   0.05    -0.23  -0.21  -0.20     0.07  -0.17  -0.03
  25   1    -0.02  -0.02  -0.01    -0.05  -0.05  -0.05     0.00  -0.06  -0.01
  26   1     0.00   0.06   0.03    -0.08  -0.08  -0.06     0.04  -0.01  -0.00
  27   7     0.17   0.38   0.29    -0.10  -0.00  -0.06     0.31   0.33   0.07
  28   1     0.03   0.09   0.08    -0.06  -0.04  -0.03     0.07   0.05   0.01
  29   1     0.04   0.08   0.08    -0.01   0.03   0.00     0.08   0.09   0.01
  30   6    -0.02  -0.06  -0.08    -0.10   0.03  -0.01    -0.01  -0.13   0.09
  31   8    -0.03  -0.08  -0.11    -0.14  -0.07  -0.12    -0.03  -0.22   0.03
  32   7    -0.03  -0.12  -0.15    -0.11   0.03   0.01    -0.00  -0.05   0.19
  33   1    -0.01  -0.04  -0.04    -0.03   0.01  -0.01     0.00  -0.01   0.04
  34   1    -0.01  -0.03  -0.04    -0.02   0.04   0.03    -0.00   0.00   0.06
  35   7    -0.01  -0.02  -0.03    -0.09   0.12   0.09    -0.01  -0.15   0.09
  36   1    -0.00   0.01   0.01    -0.02   0.05   0.04     0.00  -0.03   0.03
  37   1    -0.00   0.01   0.01    -0.03   0.02   0.02    -0.01  -0.05   0.00
  38   6    -0.04   0.04  -0.05     0.04   0.00   0.10    -0.02  -0.01  -0.06
  39   8     0.05   0.25  -0.06    -0.05   0.12   0.20    -0.06  -0.07  -0.07
  40   7    -0.13  -0.03  -0.14     0.05  -0.02  -0.07     0.01   0.02  -0.03
  41   1    -0.02   0.02  -0.06    -0.01   0.01  -0.04    -0.00  -0.00  -0.00
  42   1    -0.05  -0.05  -0.04     0.03  -0.03  -0.03     0.01   0.02  -0.01
  43   7    -0.09  -0.11   0.04     0.15  -0.11   0.20    -0.02   0.04  -0.09
  44   1    -0.04  -0.06   0.01     0.06  -0.05   0.04     0.00   0.02  -0.02
  45   1    -0.00  -0.01   0.02     0.04  -0.02   0.09    -0.01   0.01  -0.03
  46   6     0.02  -0.05   0.08    -0.06   0.10   0.03    -0.03   0.11   0.00
  47   8    -0.01   0.08   0.11    -0.06   0.06   0.04    -0.05  -0.04  -0.02
  48   7     0.05  -0.10   0.05    -0.08   0.07   0.04    -0.07  -0.16  -0.04
  49   1     0.01  -0.02   0.00    -0.02   0.00   0.01    -0.02  -0.07  -0.01
  50   1     0.02  -0.06   0.01    -0.02   0.03   0.01    -0.01   0.03  -0.00
  51   7     0.02  -0.14   0.12    -0.06   0.21   0.04     0.02   0.57   0.07
  52   1     0.01  -0.06   0.04    -0.02   0.06   0.01     0.01   0.15   0.02
  53   1     0.00  -0.02   0.05    -0.01   0.06   0.01     0.02   0.17   0.02
                      7                      8                      9
                        a                      a                      a 
 Frequencies --    44.5917                48.2243                48.8357
 Red. masses --    12.4595                12.3792                11.8913
 Frc consts  --     0.0000                 0.0000                 0.0000
 IR Inten    --     0.7106                 1.7006                 1.5012
 Raman Activ --     0.0000                 0.0000                 0.0000
 Depolar     --     0.0000                 0.0000                 0.0000
 Atom AN      X      Y      Z        X      Y      Z        X      Y      Z
   1   8    -0.10  -0.17   0.03    -0.02  -0.23  -0.01     0.09  -0.06  -0.05
   2   6    -0.10  -0.07   0.12    -0.05  -0.09   0.11     0.03   0.03   0.02
   3   1    -0.04  -0.03   0.05    -0.02  -0.04   0.07    -0.01  -0.00   0.02
   4   1    -0.02  -0.00   0.03    -0.02   0.01   0.04     0.01   0.02   0.01
   5   6    -0.09  -0.01   0.11    -0.04  -0.05   0.02     0.05   0.11   0.01
   6   1    -0.01  -0.00   0.03    -0.02  -0.02   0.01     0.03   0.05  -0.02
   7   1    -0.04   0.00   0.03    -0.03  -0.01  -0.01     0.00   0.05   0.02
   8   7    -0.05   0.03   0.11     0.09   0.01  -0.02     0.05   0.04  -0.00
   9   6    -0.09   0.08   0.20     0.06   0.07   0.12     0.19  -0.07  -0.17
  10   1    -0.04   0.01   0.07    -0.02   0.00   0.04     0.09   0.02  -0.07
  11   1    -0.02   0.04   0.06     0.04   0.03   0.02     0.05  -0.04  -0.05
  12   1    -0.03   0.03   0.07     0.02   0.04   0.06     0.05  -0.06  -0.06
  13   6    -0.06  -0.04   0.03     0.06  -0.07  -0.17     0.05   0.22   0.04
  14   1    -0.04  -0.02   0.01    -0.01  -0.04  -0.04     0.05   0.10  -0.01
  15   1    -0.01  -0.02  -0.00     0.02  -0.03  -0.09    -0.01   0.09   0.05
  16   1    -0.01  -0.01   0.01     0.04  -0.00  -0.06     0.02   0.05   0.01
  17   6     0.05   0.10   0.06     0.25   0.11  -0.06    -0.11  -0.12   0.11
  18   1     0.02   0.05   0.04     0.08   0.05   0.03    -0.03  -0.08   0.02
  19   1     0.03   0.04   0.01     0.10   0.05  -0.03    -0.03  -0.05   0.03
  20   1     0.02   0.02  -0.00     0.07   0.02  -0.05    -0.06  -0.01   0.07
  21   1    -0.02  -0.04  -0.00    -0.00  -0.05  -0.01     0.02   0.00  -0.00
  22   6     0.06   0.01  -0.07     0.04   0.02  -0.06    -0.02   0.03  -0.02
  23   8    -0.00  -0.07  -0.11    -0.03  -0.02  -0.09    -0.00   0.12   0.01
  24   7     0.08   0.02  -0.05     0.19   0.24   0.06     0.07   0.17   0.04
  25   1     0.02  -0.00  -0.01     0.03   0.05   0.02     0.01   0.04   0.02
  26   1     0.04   0.03  -0.01     0.05   0.04   0.01     0.00  -0.00  -0.00
  27   7     0.11   0.09  -0.07    -0.04  -0.16  -0.18    -0.14  -0.21  -0.14
  28   1     0.04   0.03  -0.02     0.03   0.02  -0.03    -0.01  -0.02  -0.03
  29   1     0.02   0.01  -0.03    -0.02  -0.04  -0.06    -0.03  -0.04  -0.04
  30   6     0.05   0.05   0.05    -0.09  -0.05   0.01    -0.05   0.03  -0.01
  31   8     0.01  -0.01  -0.03    -0.06  -0.05   0.03    -0.03   0.01  -0.03
  32   7     0.06  -0.04   0.00    -0.13  -0.09  -0.10    -0.05   0.09   0.03
  33   1     0.00  -0.03  -0.02    -0.03  -0.02  -0.03    -0.01   0.03   0.01
  34   1     0.02   0.01   0.02    -0.04  -0.02  -0.02    -0.02   0.03   0.01
  35   7     0.12   0.24   0.22    -0.12  -0.02   0.09    -0.07  -0.02  -0.04
  36   1     0.04   0.05   0.05    -0.04  -0.01   0.01    -0.02   0.02   0.01
  37   1     0.03   0.06   0.03    -0.03  -0.01   0.02    -0.02   0.00  -0.00
  38   6     0.02   0.01   0.09     0.06   0.02  -0.02     0.03  -0.05   0.02
  39   8     0.01   0.12   0.13     0.38   0.19  -0.13     0.06  -0.16  -0.02
  40   7    -0.02  -0.03   0.01    -0.09  -0.08   0.09     0.06  -0.02   0.12
  41   1    -0.01   0.01  -0.01     0.03   0.00   0.02     0.02  -0.02   0.05
  42   1     0.00  -0.02  -0.00    -0.07  -0.05   0.05     0.01   0.02   0.04
  43   7     0.05  -0.07   0.15    -0.15  -0.07   0.01    -0.01   0.03  -0.05
  44   1     0.02  -0.04   0.03    -0.10  -0.04   0.02    -0.01   0.03  -0.00
  45   1     0.02  -0.01   0.06    -0.01   0.01  -0.03    -0.01   0.00  -0.03
  46   6    -0.02  -0.04  -0.22    -0.07   0.06   0.06    -0.05  -0.03   0.03
  47   8     0.07   0.21  -0.20    -0.11  -0.12   0.04    -0.08   0.19   0.06
  48   7    -0.11  -0.35  -0.24    -0.07   0.12   0.08    -0.08  -0.56  -0.09
  49   1    -0.02  -0.06  -0.04    -0.02   0.01   0.02    -0.02  -0.11  -0.03
  50   1    -0.05  -0.12  -0.07    -0.01   0.07   0.03    -0.01  -0.13  -0.02
  51   7    -0.05  -0.05  -0.32    -0.06   0.23   0.10    -0.00   0.22   0.12
  52   1    -0.03  -0.07  -0.09    -0.01   0.09   0.03     0.01  -0.02   0.03
  53   1     0.01   0.04  -0.08    -0.02   0.04   0.02     0.00   0.12   0.06
                     10                     11                     12
                        a                      a                      a 
 Frequencies --    55.8996                57.5109                70.2386
 Red. masses --    12.2023                12.3935                13.4073
 Frc consts  --     0.0000                 0.0000                 0.0000
 IR Inten    --     1.1326                 0.8372                 5.3112
 Raman Activ --     0.0000                 0.0000                 0.0000
 Depolar     --     0.0000                 0.0000                 0.0000
 Atom AN      X      Y      Z        X      Y      Z        X      Y      Z
   1   8    -0.02  -0.12   0.05    -0.09   0.06   0.15    -0.03   0.23   0.20
   2   6    -0.08   0.00   0.13    -0.07   0.03   0.11    -0.00   0.12   0.09
   3   1    -0.04  -0.01   0.06    -0.01   0.01   0.03     0.02   0.04   0.01
   4   1    -0.03   0.02   0.04    -0.03   0.01   0.03    -0.01   0.03   0.03
   5   6    -0.05   0.10   0.06    -0.08  -0.01   0.05    -0.02   0.05   0.03
   6   1    -0.00   0.04  -0.00    -0.04  -0.01   0.02    -0.02   0.02   0.01
   7   1    -0.04   0.05   0.03    -0.02  -0.01  -0.00     0.00   0.01   0.01
   8   7     0.01   0.05   0.02    -0.01  -0.00   0.02    -0.00   0.02   0.02
   9   6     0.14  -0.04  -0.09    -0.07   0.05   0.11     0.02  -0.01  -0.04
  10   1     0.06   0.02  -0.05    -0.05  -0.00   0.03     0.01   0.01  -0.03
  11   1     0.05  -0.02  -0.03    -0.00   0.02   0.02     0.01  -0.02  -0.02
  12   1     0.04  -0.04  -0.02    -0.02   0.04   0.06     0.01  -0.01  -0.00
  13   6     0.01   0.19  -0.03    -0.02  -0.12  -0.09    -0.00   0.05   0.02
  14   1     0.01   0.08  -0.03    -0.04  -0.05  -0.02     0.00   0.02   0.00
  15   1    -0.02   0.07   0.01     0.01  -0.05  -0.05    -0.01   0.02   0.01
  16   1     0.02   0.04  -0.02     0.01  -0.03  -0.03     0.00   0.02   0.00
  17   6    -0.05  -0.08   0.12     0.15   0.08  -0.01    -0.02  -0.03   0.07
  18   1    -0.01  -0.05   0.04     0.05   0.05   0.02    -0.01  -0.02   0.02
  19   1     0.00  -0.03   0.02     0.06   0.02  -0.01    -0.00  -0.01   0.02
  20   1    -0.04  -0.01   0.06     0.06   0.01  -0.02    -0.01  -0.00   0.03
  21   1    -0.01  -0.02   0.02    -0.02   0.01   0.04     0.01   0.03   0.04
  22   6     0.03  -0.04  -0.16    -0.14  -0.04  -0.01     0.08  -0.04  -0.05
  23   8     0.06   0.09  -0.12    -0.02   0.08   0.04     0.15   0.03  -0.03
  24   7    -0.09  -0.36  -0.25    -0.34  -0.30  -0.17     0.02  -0.13  -0.10
  25   1    -0.02  -0.07  -0.04    -0.06  -0.04  -0.04     0.01  -0.02  -0.02
  26   1    -0.01  -0.09  -0.07    -0.10  -0.06  -0.04    -0.00  -0.04  -0.03
  27   7     0.14   0.13  -0.16    -0.12   0.08   0.11     0.07  -0.04  -0.04
  28   1     0.01  -0.05  -0.07    -0.09  -0.06   0.00     0.01  -0.03  -0.02
  29   1     0.04   0.05  -0.04    -0.02   0.02   0.04     0.03  -0.00  -0.00
  30   6    -0.02   0.02   0.11     0.03   0.12  -0.13    -0.02  -0.12  -0.11
  31   8    -0.03  -0.03   0.07     0.08   0.16  -0.12     0.00  -0.03  -0.01
  32   7    -0.02   0.04   0.14     0.02   0.13  -0.18     0.00  -0.00  -0.00
  33   1    -0.00   0.01   0.02     0.01   0.04  -0.03     0.02   0.02   0.03
  34   1    -0.01   0.03   0.05     0.00   0.03  -0.06    -0.01  -0.04  -0.03
  35   7    -0.01   0.06   0.16     0.01   0.11  -0.12    -0.06  -0.37  -0.40
  36   1     0.00   0.03   0.06    -0.01   0.02  -0.05    -0.01  -0.08  -0.09
  37   1    -0.01   0.01   0.03     0.01   0.02  -0.02    -0.02  -0.07  -0.07
  38   6     0.07  -0.08  -0.02     0.06  -0.02  -0.02     0.07   0.08   0.15
  39   8     0.22  -0.20  -0.12     0.22  -0.00  -0.09     0.18   0.33   0.18
  40   7     0.06  -0.06   0.20     0.00  -0.05   0.10    -0.04  -0.03   0.04
  41   1     0.05  -0.03   0.07     0.03  -0.01   0.03     0.00   0.04  -0.01
  42   1    -0.01   0.01   0.07    -0.03  -0.01   0.04    -0.02  -0.04   0.01
  43   7    -0.08   0.02  -0.12    -0.07  -0.02  -0.04     0.07  -0.09   0.28
  44   1    -0.05   0.03  -0.01    -0.05  -0.00   0.00     0.00  -0.07   0.07
  45   1    -0.02   0.00  -0.07    -0.01   0.00  -0.04     0.05  -0.00   0.10
  46   6    -0.06   0.07  -0.01     0.11  -0.07   0.06    -0.11   0.00  -0.07
  47   8    -0.04   0.12   0.01     0.05  -0.06   0.06    -0.18   0.04  -0.09
  48   7    -0.06   0.28   0.05     0.15  -0.29  -0.03    -0.08   0.01  -0.11
  49   1    -0.02   0.06   0.02     0.04  -0.04  -0.02    -0.02   0.00  -0.03
  50   1    -0.03   0.03   0.01     0.06  -0.04   0.00    -0.02  -0.01  -0.03
  51   7    -0.10  -0.17  -0.07     0.17   0.09   0.18    -0.11  -0.05  -0.03
  52   1    -0.04  -0.03  -0.02     0.06   0.00   0.05    -0.02  -0.02  -0.01
  53   1    -0.03  -0.06  -0.02     0.04   0.04   0.07    -0.04  -0.01  -0.00
                     13                     14                     15
                        a                      a                      a 
 Frequencies --    74.3897                91.6873                92.9476
 Red. masses --    12.4291                13.1161                13.0350
 Frc consts  --     0.0000                 0.0000                 0.0000
 IR Inten    --     2.2776                 7.3125                 7.0659
 Raman Activ --     0.0000                 0.0000                 0.0000
 Depolar     --     0.0000                 0.0000                 0.0000
 Atom AN      X      Y      Z        X      Y      Z        X      Y      Z
   1   8     0.05   0.09  -0.21    -0.05   0.21  -0.26    -0.05   0.04  -0.04
   2   6     0.06   0.16  -0.04     0.04   0.13  -0.20     0.01  -0.07  -0.13
   3   1     0.00   0.03   0.01     0.02   0.04  -0.06     0.01  -0.00  -0.08
   4   1     0.04   0.07  -0.02     0.04   0.04  -0.06     0.01  -0.06  -0.05
   5   6     0.07   0.19   0.01     0.02   0.04  -0.09    -0.01  -0.11  -0.01
   6   1     0.03   0.06   0.00     0.00   0.02  -0.03     0.01  -0.05   0.02
   7   1     0.02   0.06   0.01     0.03   0.01  -0.00     0.01  -0.05  -0.01
   8   7     0.04   0.18   0.03    -0.11  -0.05  -0.05    -0.10  -0.03   0.05
   9   6    -0.11   0.23   0.07    -0.13  -0.08  -0.16    -0.15   0.01   0.12
  10   1    -0.06   0.05   0.02    -0.01  -0.01  -0.05    -0.05  -0.01   0.05
  11   1    -0.03   0.06   0.02    -0.06  -0.04  -0.04    -0.04   0.01   0.04
  12   1    -0.03   0.10   0.03    -0.04  -0.03  -0.08    -0.04   0.02   0.04
  13   6     0.03   0.00   0.03    -0.09  -0.02   0.09    -0.08  -0.07   0.12
  14   1    -0.02  -0.01   0.01    -0.00   0.00   0.03    -0.02  -0.03   0.04
  15   1     0.04  -0.01   0.01    -0.02   0.00   0.05    -0.02  -0.02   0.03
  16   1     0.00  -0.02   0.01    -0.05  -0.01   0.03    -0.04  -0.02   0.04
  17   6     0.16   0.24   0.00    -0.21  -0.12  -0.00    -0.12   0.04  -0.04
  18   1     0.05   0.11   0.00    -0.06  -0.05  -0.02    -0.04   0.02  -0.02
  19   1     0.04   0.05   0.00    -0.07  -0.04   0.00    -0.04   0.03  -0.00
  20   1     0.08   0.06  -0.01    -0.07  -0.03   0.02    -0.03   0.00  -0.03
  21   1     0.03   0.00  -0.08    -0.00   0.04  -0.08    -0.02   0.02   0.00
  22   6     0.02  -0.08   0.02    -0.07  -0.03  -0.00    -0.02   0.05   0.04
  23   8    -0.01  -0.26  -0.05    -0.17  -0.21  -0.07    -0.06   0.06   0.04
  24   7     0.00  -0.04  -0.00    -0.03   0.02   0.04     0.04   0.14   0.08
  25   1    -0.00  -0.02  -0.01    -0.01   0.01   0.01    -0.01  -0.00   0.00
  26   1     0.01   0.03   0.01     0.02   0.06   0.02    -0.01   0.01   0.02
  27   7     0.07   0.05   0.13     0.01   0.12   0.06    -0.06  -0.03  -0.02
  28   1     0.01   0.02   0.04     0.00   0.03   0.01     0.01   0.04   0.01
  29   1     0.01  -0.02   0.03    -0.02  -0.01  -0.00    -0.01   0.02  -0.00
  30   6    -0.03  -0.12  -0.08    -0.00   0.03   0.07     0.03  -0.06  -0.05
  31   8    -0.06  -0.08  -0.04     0.01   0.11   0.16    -0.08  -0.31  -0.36
  32   7    -0.04  -0.25  -0.19    -0.02  -0.11  -0.08     0.11   0.14   0.31
  33   1    -0.02  -0.07  -0.04    -0.02  -0.04  -0.02     0.02   0.02   0.05
  34   1    -0.01  -0.08  -0.06    -0.01  -0.04  -0.03     0.06   0.08   0.13
  35   7    -0.01  -0.09  -0.08     0.02   0.12   0.17     0.08  -0.04  -0.09
  36   1     0.00  -0.02  -0.02     0.00  -0.02  -0.01     0.04   0.07   0.07
  37   1    -0.00   0.01   0.01     0.01   0.02   0.03     0.02   0.00  -0.03
  38   6     0.03  -0.12   0.05     0.16   0.01   0.08     0.09  -0.02  -0.04
  39   8    -0.04  -0.34   0.04     0.44   0.15   0.00     0.29   0.02  -0.13
  40   7     0.13  -0.03   0.17     0.03  -0.09   0.19     0.01  -0.07   0.09
  41   1     0.03  -0.04   0.06     0.06   0.01   0.05     0.04  -0.01   0.03
  42   1     0.04   0.03   0.05    -0.02  -0.03   0.07    -0.02  -0.01   0.04
  43   7     0.04   0.03  -0.04     0.00  -0.07   0.11    -0.06  -0.03  -0.07
  44   1     0.01   0.04  -0.00    -0.05  -0.04   0.04    -0.05  -0.01  -0.00
  45   1    -0.02  -0.02  -0.03     0.03   0.01   0.01     0.00   0.01  -0.05
  46   6    -0.10   0.05   0.04     0.04  -0.04   0.00     0.03   0.08   0.01
  47   8    -0.14   0.22   0.07     0.12  -0.13   0.01    -0.07   0.31   0.02
  48   7    -0.08  -0.02   0.00    -0.02  -0.05   0.06     0.12   0.10  -0.08
  49   1    -0.02  -0.00  -0.00    -0.00  -0.00   0.03     0.02  -0.00  -0.05
  50   1    -0.02  -0.05  -0.00    -0.02   0.02   0.02     0.05  -0.07  -0.03
  51   7    -0.10  -0.06   0.08     0.02   0.05  -0.08     0.05  -0.16   0.12
  52   1    -0.02  -0.04   0.02    -0.01   0.02  -0.02     0.04  -0.05   0.04
  53   1    -0.03   0.01   0.04     0.02   0.01  -0.04    -0.00  -0.01   0.06
                     16                     17                     18
                        a                      a                      a 
 Frequencies --    97.6711               102.1692               116.5072
 Red. masses --    13.3614                12.7481                10.6458
 Frc consts  --     0.0000                 0.0000                 0.0000
 IR Inten    --     1.7384                 7.0695                 6.8328
 Raman Activ --     0.0000                 0.0000                 0.0000
 Depolar     --     0.0000                 0.0000                 0.0000
 Atom AN      X      Y      Z        X      Y      Z        X      Y      Z
   1   8    -0.02  -0.33  -0.35    -0.10   0.10   0.13    -0.04   0.00   0.19
   2   6    -0.08  -0.02   0.00    -0.14   0.05   0.00    -0.04  -0.26  -0.22
   3   1    -0.06  -0.04   0.07    -0.02   0.02  -0.01    -0.01  -0.02  -0.17
   4   1    -0.01   0.06   0.00    -0.07   0.01   0.01    -0.02  -0.19  -0.07
   5   6    -0.04   0.12  -0.03    -0.14   0.03  -0.14    -0.04  -0.26  -0.12
   6   1     0.00   0.05  -0.03    -0.06   0.00  -0.04    -0.01  -0.11   0.02
   7   1    -0.03   0.06   0.01    -0.05   0.00  -0.06    -0.02  -0.10  -0.09
   8   7     0.00   0.05  -0.07    -0.01   0.06  -0.20    -0.05   0.06  -0.06
   9   6    -0.05   0.06  -0.07     0.09   0.03  -0.16     0.07   0.10   0.17
  10   1    -0.03   0.02  -0.03     0.03   0.01  -0.05     0.03   0.01   0.08
  11   1    -0.01   0.00  -0.03     0.04   0.02  -0.05     0.04   0.08   0.05
  12   1    -0.01   0.03  -0.01     0.03  -0.01  -0.03     0.02   0.01   0.06
  13   6    -0.01  -0.04  -0.13    -0.02   0.12  -0.28    -0.04   0.18  -0.01
  14   1    -0.02  -0.02  -0.04    -0.01   0.03  -0.08     0.01   0.04   0.02
  15   1     0.01  -0.02  -0.05    -0.02   0.04  -0.09    -0.04   0.05  -0.03
  16   1     0.01  -0.02  -0.04     0.02   0.04  -0.09    -0.01   0.09   0.01
  17   6     0.12   0.05  -0.02     0.02   0.02  -0.14    -0.17   0.20  -0.25
  18   1     0.04   0.03   0.02     0.01  -0.00  -0.03    -0.05   0.05  -0.09
  19   1     0.05  -0.00  -0.02     0.02  -0.00  -0.05    -0.06   0.11  -0.05
  20   1     0.05   0.01  -0.01    -0.00   0.01  -0.03    -0.06   0.05  -0.11
  21   1    -0.03  -0.02  -0.06    -0.02   0.00   0.04    -0.02  -0.02   0.07
  22   6    -0.13   0.03   0.01    -0.01   0.02   0.01     0.02   0.02  -0.02
  23   8    -0.36   0.07   0.04     0.01   0.01   0.00     0.02   0.01  -0.03
  24   7    -0.05  -0.09   0.15    -0.00   0.09   0.00     0.03   0.04  -0.02
  25   1    -0.01  -0.01   0.07    -0.02  -0.00  -0.02     0.01   0.02   0.00
  26   1     0.04   0.00   0.04    -0.02   0.00  -0.00     0.01   0.01  -0.01
  27   7     0.01   0.18  -0.14    -0.06  -0.04   0.02     0.01  -0.00  -0.04
  28   1     0.02  -0.02  -0.06    -0.00   0.03   0.02     0.01   0.02  -0.00
  29   1    -0.04   0.03  -0.08    -0.00   0.01   0.02     0.01   0.01  -0.01
  30   6     0.07   0.01   0.07    -0.05  -0.04  -0.05     0.04   0.06   0.05
  31   8     0.08   0.07   0.14    -0.09  -0.26  -0.30     0.09   0.26   0.27
  32   7     0.12   0.18   0.28    -0.05  -0.00   0.01     0.03   0.06  -0.01
  33   1     0.03   0.04   0.07    -0.02  -0.01  -0.02     0.01   0.02   0.02
  34   1     0.03   0.03   0.06    -0.00   0.05   0.05    -0.01  -0.03  -0.05
  35   7     0.04  -0.24  -0.24    -0.04   0.14   0.19     0.01  -0.10  -0.14
  36   1     0.02  -0.03  -0.03    -0.01   0.06   0.07    -0.00  -0.05  -0.06
  37   1     0.01  -0.05  -0.04    -0.01   0.01   0.01     0.00  -0.01  -0.01
  38   6     0.01  -0.01   0.10     0.04  -0.06   0.21     0.05  -0.09   0.06
  39   8    -0.05  -0.02   0.14    -0.08  -0.13   0.29     0.05  -0.21   0.05
  40   7     0.03   0.00   0.07     0.10  -0.03   0.19     0.09  -0.07   0.17
  41   1     0.00   0.00   0.01     0.02  -0.01   0.05     0.04  -0.02   0.05
  42   1     0.02   0.00   0.01     0.06   0.02   0.04     0.04   0.02   0.04
  43   7     0.07  -0.01   0.12     0.16  -0.03   0.24     0.05  -0.01   0.01
  44   1     0.02  -0.01   0.03     0.04  -0.03   0.06    -0.01  -0.00   0.01
  45   1     0.01  -0.01   0.05     0.01  -0.04   0.09    -0.01  -0.03  -0.01
  46   6     0.05  -0.02  -0.01     0.08  -0.03  -0.01    -0.04   0.01   0.00
  47   8     0.05  -0.06  -0.01     0.05  -0.15  -0.04    -0.01   0.01   0.01
  48   7     0.05  -0.02  -0.00     0.12   0.08  -0.01    -0.07  -0.04   0.02
  49   1     0.01  -0.00   0.00     0.02  -0.02  -0.02    -0.01   0.02   0.02
  50   1     0.01   0.01  -0.00     0.04   0.02  -0.00    -0.02   0.01   0.01
  51   7     0.06   0.02  -0.00     0.10   0.01   0.03    -0.05   0.02  -0.04
  52   1     0.01   0.01  -0.00     0.04   0.03   0.01    -0.02  -0.00  -0.01
  53   1     0.01  -0.00  -0.00     0.02  -0.01   0.01    -0.01   0.00  -0.02
                     19                     20                     21
                        a                      a                      a 
 Frequencies --   120.1897               123.9114               147.0826
 Red. masses --    13.0191                12.8263                13.4336
 Frc consts  --     0.0000                 0.0000                 0.0000
 IR Inten    --    30.3942                10.1245                31.7602
 Raman Activ --     0.0000                 0.0000                 0.0000
 Depolar     --     0.0000                 0.0000                 0.0000
 Atom AN      X      Y      Z        X      Y      Z        X      Y      Z
   1   8    -0.04   0.07   0.06    -0.04   0.03   0.06    -0.01   0.13   0.10
   2   6     0.01  -0.02  -0.01    -0.01   0.01   0.06     0.08   0.01   0.03
   3   1     0.03  -0.00  -0.00     0.01   0.00   0.02     0.04   0.01  -0.01
   4   1    -0.01   0.00   0.00    -0.01   0.01   0.02     0.03  -0.01   0.01
   5   6    -0.02  -0.12  -0.11    -0.01  -0.02   0.01     0.06  -0.06   0.07
   6   1    -0.03  -0.04  -0.04    -0.01  -0.00   0.00     0.01  -0.03   0.04
   7   1     0.00  -0.05  -0.04    -0.00  -0.01  -0.00     0.02  -0.03  -0.00
   8   7     0.06  -0.18  -0.16     0.05  -0.03  -0.01     0.10   0.02   0.09
   9   6     0.04  -0.16  -0.14     0.06  -0.03  -0.01     0.18  -0.00   0.09
  10   1     0.01  -0.05  -0.04     0.02  -0.01  -0.00     0.06   0.00   0.03
  11   1     0.01  -0.04  -0.04     0.02  -0.01  -0.00     0.05   0.01   0.03
  12   1     0.01  -0.04  -0.04     0.02  -0.01  -0.00     0.05  -0.02   0.03
  13   6     0.05  -0.20  -0.22     0.04  -0.03  -0.06     0.10   0.12   0.08
  14   1    -0.00  -0.06  -0.07     0.01  -0.01  -0.02     0.04   0.04   0.02
  15   1     0.02  -0.06  -0.07     0.01  -0.01  -0.02     0.01   0.04   0.02
  16   1     0.02  -0.06  -0.07     0.02  -0.00  -0.02     0.03   0.04   0.02
  17   6     0.13  -0.17  -0.13     0.08  -0.04   0.01     0.02   0.01   0.07
  18   1     0.04  -0.04  -0.02     0.03  -0.01   0.01     0.01  -0.01   0.01
  19   1     0.05  -0.05  -0.04     0.03  -0.01  -0.00     0.00   0.01   0.02
  20   1     0.04  -0.05  -0.04     0.02  -0.01   0.00    -0.01   0.01   0.02
  21   1    -0.01   0.01   0.01     0.01  -0.02  -0.01     0.01   0.01   0.02
  22   6    -0.01  -0.06  -0.02    -0.06   0.04  -0.16    -0.06  -0.17  -0.05
  23   8    -0.08  -0.18  -0.06     0.08  -0.22  -0.31    -0.30  -0.47  -0.15
  24   7     0.02  -0.04   0.02    -0.13   0.28  -0.29     0.06  -0.04   0.09
  25   1     0.01   0.00   0.01    -0.04   0.06  -0.11     0.01  -0.02   0.02
  26   1     0.03   0.03   0.01    -0.06   0.10  -0.07     0.08   0.09   0.05
  27   7     0.05   0.03   0.00    -0.14   0.09   0.11     0.10   0.09  -0.02
  28   1     0.02   0.00  -0.00    -0.06   0.09   0.06     0.03  -0.02  -0.02
  29   1    -0.00  -0.02  -0.01    -0.02  -0.02   0.06    -0.04  -0.08  -0.06
  30   6     0.02   0.09   0.07     0.04  -0.00   0.01     0.01   0.13  -0.04
  31   8     0.08   0.16   0.16    -0.17   0.02  -0.05     0.02   0.04  -0.18
  32   7     0.01   0.05  -0.03     0.14  -0.02   0.29     0.04   0.27   0.09
  33   1    -0.00   0.01  -0.00     0.01  -0.03   0.05     0.00   0.07   0.01
  34   1    -0.01  -0.00  -0.02     0.07  -0.00   0.08     0.02   0.08   0.03
  35   7     0.01   0.09   0.10     0.16  -0.02  -0.20    -0.02   0.13  -0.04
  36   1    -0.00   0.01   0.01     0.07   0.02  -0.02    -0.01   0.07   0.02
  37   1    -0.00   0.03   0.03     0.04   0.03  -0.04    -0.00   0.02  -0.02
  38   6    -0.02   0.03   0.03    -0.01   0.01  -0.00    -0.02  -0.00  -0.02
  39   8    -0.06   0.07   0.07    -0.03   0.01   0.01    -0.04  -0.02  -0.01
  40   7    -0.03   0.01  -0.03    -0.01   0.01  -0.02     0.02   0.03  -0.03
  41   1    -0.01   0.02  -0.02    -0.01   0.00  -0.01    -0.03  -0.03   0.00
  42   1     0.02   0.01  -0.02    -0.00   0.00  -0.01    -0.03  -0.03   0.01
  43   7     0.04  -0.01   0.08    -0.00   0.01   0.00    -0.03  -0.01  -0.02
  44   1     0.01  -0.02   0.02     0.00   0.00  -0.00     0.03   0.03  -0.01
  45   1     0.00  -0.01   0.04    -0.00   0.00   0.00     0.02   0.02  -0.01
  46   6    -0.07   0.16   0.07    -0.01  -0.02   0.13    -0.09  -0.08  -0.05
  47   8    -0.19   0.54   0.10     0.22  -0.01   0.21    -0.24  -0.27  -0.11
  48   7     0.01   0.01  -0.05    -0.17  -0.09   0.29     0.00   0.03  -0.12
  49   1     0.00   0.03  -0.02    -0.04  -0.02   0.10    -0.01  -0.00  -0.05
  50   1     0.02  -0.08  -0.02    -0.08  -0.03   0.07     0.03   0.05  -0.02
  51   7    -0.05  -0.11   0.21    -0.08   0.01  -0.08    -0.04   0.04   0.11
  52   1     0.02  -0.08   0.06    -0.07  -0.00  -0.03     0.02   0.03   0.04
  53   1    -0.03   0.02   0.10     0.01   0.02  -0.05    -0.04  -0.03   0.04
                     22                     23                     24
                        a                      a                      a 
 Frequencies --   149.8199               169.2258               170.4860
 Red. masses --    13.0828                 6.2773                10.2068
 Frc consts  --     0.0000                 0.0000                 0.0000
 IR Inten    --     5.6143                 6.7339                 4.8891
 Raman Activ --     0.0000                 0.0000                 0.0000
 Depolar     --     0.0000                 0.0000                 0.0000
 Atom AN      X      Y      Z        X      Y      Z        X      Y      Z
   1   8    -0.07   0.21   0.14    -0.01  -0.00  -0.01    -0.02   0.02   0.02
   2   6     0.07   0.03   0.06    -0.00  -0.00  -0.01    -0.03  -0.00  -0.02
   3   1     0.05   0.02  -0.00    -0.00  -0.00  -0.00    -0.00   0.00  -0.01
   4   1     0.02  -0.00   0.01    -0.00  -0.00  -0.00    -0.01  -0.01  -0.01
   5   6     0.04  -0.11   0.06    -0.00   0.00  -0.01    -0.03  -0.01  -0.04
   6   1    -0.01  -0.05   0.04    -0.00  -0.00  -0.00    -0.01  -0.00  -0.01
   7   1     0.02  -0.06  -0.02    -0.00  -0.00  -0.00    -0.01  -0.00  -0.01
   8   7     0.10  -0.01   0.07     0.00   0.01  -0.01    -0.02  -0.02  -0.05
   9   6     0.15  -0.02   0.10     0.01   0.01  -0.00    -0.03  -0.01  -0.02
  10   1     0.05  -0.01   0.04     0.00   0.00  -0.00    -0.00  -0.01   0.00
  11   1     0.04   0.01   0.03     0.01   0.01  -0.00    -0.01   0.01  -0.00
  12   1     0.04  -0.02   0.03     0.00   0.00   0.00    -0.01  -0.00  -0.01
  13   6     0.09   0.07   0.04     0.00   0.03  -0.01    -0.02  -0.04  -0.04
  14   1     0.03   0.03   0.01     0.00   0.01  -0.00    -0.01  -0.02  -0.01
  15   1     0.01   0.03   0.01    -0.00   0.01  -0.00    -0.00  -0.02  -0.02
  16   1     0.03   0.02   0.01     0.00   0.01  -0.00    -0.01  -0.01  -0.01
  17   6     0.06   0.00   0.04    -0.00  -0.00   0.00     0.00  -0.01  -0.05
  18   1     0.02  -0.01   0.01    -0.00   0.00  -0.00    -0.00   0.01  -0.01
  19   1     0.02   0.01   0.01    -0.01  -0.01   0.00    -0.00  -0.01  -0.01
  20   1     0.01   0.00   0.00     0.00   0.00   0.01     0.01  -0.00  -0.01
  21   1    -0.01   0.05   0.03     0.00  -0.01  -0.01    -0.02   0.02   0.02
  22   6    -0.16   0.03  -0.04    -0.06   0.08  -0.05     0.10  -0.09   0.08
  23   8    -0.34  -0.02  -0.07     0.04   0.06  -0.08    -0.04   0.01   0.16
  24   7    -0.07   0.01   0.06    -0.10   0.13  -0.12     0.16  -0.20   0.19
  25   1    -0.03  -0.01   0.03    -0.03   0.03  -0.04     0.04  -0.05   0.06
  26   1     0.02   0.02   0.02    -0.05   0.02  -0.03     0.06  -0.05   0.05
  27   7    -0.06   0.14  -0.18    -0.13   0.04   0.04     0.18  -0.08  -0.08
  28   1     0.03   0.04  -0.05    -0.04   0.05   0.03     0.07  -0.07  -0.04
  29   1    -0.04   0.04  -0.08    -0.01   0.02   0.04     0.02  -0.01  -0.05
  30   6    -0.15  -0.14   0.00     0.06  -0.06   0.09    -0.06   0.08  -0.13
  31   8    -0.08  -0.14   0.08     0.06  -0.02   0.16    -0.08   0.04  -0.23
  32   7    -0.20  -0.11  -0.07     0.04  -0.14   0.04    -0.04   0.14  -0.09
  33   1    -0.04  -0.02  -0.01     0.01  -0.04   0.00    -0.01   0.04  -0.01
  34   1    -0.08  -0.05  -0.04     0.01  -0.04   0.01    -0.01   0.03  -0.02
  35   7    -0.20  -0.20   0.03     0.05  -0.08   0.10    -0.03   0.12  -0.15
  36   1    -0.06  -0.08  -0.02     0.01  -0.04   0.01    -0.00   0.05  -0.02
  37   1    -0.05  -0.08  -0.00     0.01  -0.02   0.02    -0.01   0.04  -0.03
  38   6    -0.02   0.00  -0.02     0.01  -0.01   0.03     0.02  -0.01   0.02
  39   8    -0.03  -0.01  -0.02     0.01  -0.01   0.02     0.02  -0.01   0.02
  40   7    -0.01   0.01  -0.03     0.20   0.17  -0.05     0.13   0.10  -0.02
  41   1    -0.01  -0.00  -0.01    -0.24  -0.22   0.07    -0.14  -0.13   0.05
  42   1    -0.01  -0.00  -0.01    -0.29  -0.28   0.12    -0.18  -0.17   0.08
  43   7    -0.02   0.01  -0.03    -0.19  -0.17   0.05    -0.12  -0.11   0.04
  44   1     0.00   0.01  -0.01     0.32   0.26  -0.05     0.21   0.16  -0.03
  45   1    -0.00   0.00  -0.01     0.24   0.21  -0.05     0.16   0.13  -0.03
  46   6     0.21   0.07  -0.03     0.00  -0.01  -0.06    -0.01   0.03   0.11
  47   8     0.33   0.24  -0.00    -0.14  -0.03  -0.11     0.24   0.09   0.20
  48   7     0.15  -0.00   0.01     0.10   0.03  -0.16    -0.18  -0.05   0.27
  49   1     0.05  -0.00   0.02     0.02   0.00  -0.05    -0.04  -0.01   0.09
  50   1     0.01  -0.04  -0.01     0.05   0.01  -0.04    -0.08  -0.02   0.06
  51   7     0.18  -0.03  -0.18     0.06  -0.02   0.11    -0.12   0.01  -0.17
  52   1     0.02  -0.04  -0.05     0.06   0.00   0.04    -0.09  -0.00  -0.06
  53   1     0.07   0.02  -0.06    -0.01  -0.01   0.06     0.02   0.03  -0.09
                     25                     26                     27
                        a                      a                      a 
 Frequencies --   175.4214               202.3688               219.1150
 Red. masses --    12.6625                 2.4423                12.4051
 Frc consts  --     0.0000                 0.0000                 0.0000
 IR Inten    --    14.0049               166.3372                88.9910
 Raman Activ --     0.0000                 0.0000                 0.0000
 Depolar     --     0.0000                 0.0000                 0.0000
 Atom AN      X      Y      Z        X      Y      Z        X      Y      Z
   1   8    -0.07   0.15   0.05    -0.00   0.01   0.01    -0.07   0.05  -0.09
   2   6     0.03   0.04   0.02    -0.00  -0.01  -0.01     0.01   0.05   0.03
   3   1     0.04   0.02   0.00    -0.01   0.00  -0.01     0.02   0.00   0.04
   4   1     0.01   0.02   0.01     0.00  -0.02  -0.01     0.01   0.05   0.01
   5   6    -0.00  -0.09   0.01     0.01   0.04   0.02    -0.03  -0.08   0.01
   6   1    -0.03  -0.04   0.02     0.01   0.02  -0.00    -0.04  -0.04   0.02
   7   1     0.01  -0.05  -0.02    -0.00   0.02   0.01     0.01  -0.05  -0.02
   8   7     0.05  -0.04   0.01     0.01   0.01   0.01     0.02  -0.03   0.01
   9   6     0.11  -0.04   0.04    -0.00   0.01  -0.02     0.06  -0.02   0.06
  10   1     0.05  -0.01   0.03    -0.01   0.01  -0.01     0.04  -0.01   0.04
  11   1     0.02   0.01   0.02     0.00  -0.01  -0.01     0.00   0.02   0.03
  12   1     0.03  -0.03   0.00    -0.00   0.01   0.00     0.02  -0.02  -0.00
  13   6     0.04   0.04  -0.02     0.01  -0.01   0.01     0.01   0.04  -0.03
  14   1     0.02   0.02  -0.01    -0.00  -0.00   0.00     0.01   0.02  -0.01
  15   1    -0.00   0.02  -0.01     0.01  -0.00   0.00    -0.01   0.02  -0.01
  16   1     0.02   0.02  -0.01     0.00  -0.00   0.00     0.01   0.02  -0.01
  17   6     0.01  -0.04   0.00     0.03  -0.00   0.03    -0.00  -0.01  -0.01
  18   1     0.01  -0.03   0.00     0.01   0.01   0.00     0.00  -0.02   0.01
  19   1     0.01   0.00  -0.00     0.00  -0.01   0.01     0.02   0.02  -0.01
  20   1    -0.01  -0.01  -0.00     0.02  -0.00   0.02    -0.03  -0.00  -0.02
  21   1    -0.02   0.05   0.01     0.00  -0.02  -0.00    -0.00   0.00  -0.06
  22   6    -0.14   0.11   0.02    -0.00   0.01   0.02     0.07  -0.01   0.02
  23   8    -0.25   0.27   0.08    -0.10  -0.09  -0.01     0.03   0.06   0.07
  24   7    -0.07  -0.02   0.11    -0.02  -0.08  -0.01     0.08  -0.09   0.05
  25   1    -0.03  -0.00   0.05    -0.05  -0.09  -0.02     0.01  -0.04   0.04
  26   1    -0.00  -0.04   0.02    -0.09  -0.18  -0.04     0.01  -0.06   0.00
  27   7    -0.07   0.12  -0.23    -0.08  -0.23  -0.10     0.10  -0.04  -0.09
  28   1     0.02  -0.01  -0.08     0.35   0.66   0.21     0.07   0.02  -0.02
  29   1    -0.04   0.08  -0.09     0.19   0.43   0.14     0.04   0.05  -0.03
  30   6     0.25  -0.12  -0.07     0.02   0.03  -0.01    -0.18   0.07   0.01
  31   8     0.14  -0.10  -0.10     0.06   0.03   0.00    -0.50   0.23   0.08
  32   7     0.26  -0.29  -0.17     0.02   0.07  -0.02    -0.07  -0.34   0.21
  33   1     0.05  -0.10  -0.06    -0.00   0.01  -0.01    -0.08  -0.14   0.09
  34   1     0.07  -0.07  -0.04    -0.01   0.00  -0.02     0.07  -0.12   0.06
  35   7     0.35   0.08   0.04    -0.00   0.00  -0.00     0.12   0.27  -0.26
  36   1     0.11   0.01  -0.00    -0.01   0.00  -0.00     0.11   0.03  -0.09
  37   1     0.09   0.06   0.03     0.00  -0.00   0.00     0.01   0.15  -0.08
  38   6    -0.01  -0.00  -0.00    -0.00   0.00  -0.00    -0.00  -0.00   0.00
  39   8    -0.02  -0.00   0.00    -0.00   0.00  -0.00    -0.01  -0.01   0.00
  40   7    -0.02  -0.01  -0.01    -0.00  -0.00  -0.00     0.00   0.00  -0.00
  41   1     0.01   0.02  -0.01     0.00   0.00  -0.00    -0.00  -0.00  -0.00
  42   1     0.02   0.02  -0.01     0.00   0.00  -0.00     0.00   0.00  -0.00
  43   7     0.02   0.01  -0.01     0.00   0.00  -0.00     0.01   0.00  -0.00
  44   1    -0.02  -0.02   0.00    -0.00  -0.00   0.00    -0.01  -0.01   0.00
  45   1    -0.02  -0.02   0.00    -0.00  -0.00   0.00    -0.01  -0.01   0.00
  46   6    -0.16  -0.02   0.05    -0.01  -0.00  -0.00     0.07  -0.03  -0.03
  47   8    -0.13  -0.08   0.07    -0.01  -0.02   0.00    -0.03  -0.05  -0.06
  48   7    -0.18  -0.01   0.08    -0.01  -0.00   0.00     0.12  -0.02  -0.10
  49   1    -0.05  -0.00   0.02    -0.00   0.00   0.00     0.03   0.02  -0.05
  50   1    -0.04   0.01   0.02    -0.00   0.01   0.00     0.05   0.02  -0.02
  51   7    -0.18   0.01   0.04    -0.01   0.01  -0.00     0.12  -0.04   0.12
  52   1    -0.05   0.02   0.01    -0.01  -0.01  -0.00     0.07   0.01   0.04
  53   1    -0.04   0.00   0.01    -0.01  -0.01  -0.00     0.01  -0.01   0.06
                     28                     29                     30
                        a                      a                      a 
 Frequencies --   231.4406               281.6544               300.4851
 Red. masses --     9.7920                 6.3689                 7.8788
 Frc consts  --     0.0000                 0.0000                 0.0000
 IR Inten    --    10.2829                 4.2467                 1.5412
 Raman Activ --     0.0000                 0.0000                 0.0000
 Depolar     --     0.0000                 0.0000                 0.0000
 Atom AN      X      Y      Z        X      Y      Z        X      Y      Z
   1   8    -0.22   0.08  -0.47    -0.21   0.13  -0.15    -0.48   0.06  -0.05
   2   6     0.03   0.20   0.10    -0.08  -0.14  -0.32    -0.12  -0.22  -0.08
   3   1     0.07   0.00   0.16    -0.06   0.02  -0.21    -0.04  -0.03  -0.09
   4   1     0.04   0.23   0.03     0.05  -0.17  -0.12     0.02  -0.12  -0.04
   5   6    -0.12  -0.26   0.03    -0.03   0.01   0.10    -0.02  -0.05   0.07
   6   1    -0.14  -0.13   0.07     0.06   0.01   0.03     0.05  -0.01   0.02
   7   1     0.03  -0.17  -0.08    -0.03   0.03   0.05    -0.05   0.01   0.01
   8   7    -0.02  -0.08   0.04    -0.00   0.01   0.12     0.13   0.05   0.03
   9   6     0.16  -0.05   0.25     0.10  -0.02   0.10    -0.04   0.01  -0.23
  10   1     0.11  -0.04   0.13    -0.15   0.01  -0.09     0.23   0.01   0.05
  11   1     0.02   0.06   0.10     0.21  -0.09  -0.06    -0.28   0.04   0.05
  12   1     0.05  -0.06   0.03     0.03   0.05   0.23    -0.02  -0.05  -0.37
  13   6    -0.03   0.13  -0.13    -0.03   0.09  -0.21     0.15   0.05   0.17
  14   1    -0.01   0.06  -0.06    -0.04  -0.04  -0.00     0.07   0.13  -0.05
  15   1    -0.06   0.06  -0.03    -0.05   0.00  -0.19     0.06   0.06   0.22
  16   1     0.04   0.04  -0.06     0.07   0.13  -0.07    -0.01  -0.14   0.03
  17   6    -0.04  -0.04   0.00     0.14  -0.14   0.31     0.26   0.07   0.05
  18   1     0.01  -0.09   0.08     0.01   0.12  -0.06     0.07   0.06   0.03
  19   1     0.07   0.06  -0.03    -0.10  -0.23   0.13     0.08   0.01   0.01
  20   1    -0.11  -0.00  -0.05     0.26  -0.05   0.23     0.10   0.01   0.01
  21   1    -0.03   0.06  -0.18    -0.05   0.03  -0.04    -0.10   0.03  -0.06
  22   6     0.07   0.00   0.02     0.04   0.01   0.01     0.04   0.01   0.01
  23   8     0.15   0.03   0.04     0.05   0.04   0.03     0.05   0.04   0.03
  24   7     0.01  -0.02  -0.03     0.03   0.00   0.00     0.02  -0.01   0.00
  25   1     0.02   0.01  -0.01     0.00  -0.00  -0.00     0.01  -0.00  -0.00
  26   1    -0.01  -0.02  -0.01     0.00  -0.00   0.00     0.00  -0.00   0.00
  27   7    -0.02  -0.08   0.15     0.01  -0.02   0.04     0.00  -0.03   0.05
  28   1    -0.02   0.03   0.06    -0.02  -0.03   0.00    -0.03  -0.02   0.01
  29   1     0.04  -0.00   0.08     0.01  -0.02   0.02     0.01  -0.02   0.03
  30   6     0.03   0.01   0.00    -0.00   0.01   0.00     0.01   0.01   0.01
  31   8     0.13  -0.03  -0.01     0.00   0.01   0.00     0.02   0.00   0.01
  32   7     0.01   0.13  -0.03    -0.00  -0.01  -0.00     0.00   0.02  -0.01
  33   1     0.02   0.05  -0.01     0.00   0.00   0.01    -0.00  -0.00  -0.01
  34   1    -0.02   0.05  -0.00     0.01   0.01   0.01    -0.01  -0.01  -0.01
  35   7    -0.06  -0.09   0.03    -0.00   0.01   0.01    -0.01  -0.03  -0.02
  36   1    -0.04   0.00   0.03    -0.00  -0.03  -0.04    -0.00   0.05   0.06
  37   1    -0.01  -0.04   0.02    -0.00  -0.02  -0.02    -0.00   0.02   0.03
  38   6    -0.01  -0.01   0.00    -0.01   0.01   0.00     0.00   0.00  -0.00
  39   8    -0.02  -0.02   0.00    -0.01   0.01   0.00     0.01   0.01  -0.01
  40   7     0.00  -0.00   0.00    -0.02  -0.00  -0.02     0.00   0.00  -0.01
  41   1    -0.00  -0.00   0.00     0.00   0.02  -0.01    -0.01  -0.00  -0.00
  42   1     0.00   0.00  -0.00     0.02   0.01  -0.02    -0.01  -0.01   0.00
  43   7    -0.00   0.00  -0.01    -0.01   0.00   0.00     0.00   0.01  -0.00
  44   1     0.00   0.01  -0.00     0.01   0.01  -0.00    -0.01  -0.01   0.00
  45   1    -0.00  -0.00  -0.00     0.00   0.01   0.00    -0.01  -0.00  -0.00
  46   6    -0.01   0.01   0.00     0.00   0.01   0.00    -0.00  -0.01  -0.01
  47   8     0.01   0.03   0.01     0.00   0.01   0.00    -0.01  -0.02  -0.01
  48   7    -0.02   0.00   0.01    -0.00  -0.01   0.01     0.00   0.00  -0.00
  49   1    -0.00   0.00   0.01     0.00   0.01   0.00     0.00   0.00  -0.00
  50   1    -0.01   0.00   0.00    -0.00   0.01   0.00     0.00   0.01   0.00
  51   7    -0.02   0.01  -0.04    -0.00  -0.01   0.00     0.01   0.03  -0.00
  52   1    -0.02  -0.02  -0.01     0.00   0.00   0.00    -0.01  -0.04  -0.00
  53   1    -0.00  -0.01  -0.02     0.00   0.00   0.00    -0.01  -0.03  -0.01
                     31                     32                     33
                        a                      a                      a 
 Frequencies --   307.2928               322.8921               326.1098
 Red. masses --     2.1967                 5.0533                 4.1581
 Frc consts  --     0.0000                 0.0000                 0.0000
 IR Inten    --    45.3704               135.3089               422.0419
 Raman Activ --     0.0000                 0.0000                 0.0000
 Depolar     --     0.0000                 0.0000                 0.0000
 Atom AN      X      Y      Z        X      Y      Z        X      Y      Z
   1   8    -0.03   0.01  -0.01    -0.21  -0.03  -0.05    -0.12  -0.03  -0.03
   2   6    -0.01  -0.01  -0.01    -0.03   0.01   0.19    -0.02   0.02   0.14
   3   1    -0.00  -0.00  -0.01     0.03  -0.03   0.12     0.02  -0.01   0.09
   4   1     0.01  -0.01  -0.01    -0.02   0.09   0.06    -0.01   0.07   0.05
   5   6     0.00   0.01   0.01    -0.03  -0.10  -0.03    -0.02  -0.06  -0.02
   6   1     0.01   0.01  -0.00    -0.04  -0.04   0.00    -0.03  -0.02  -0.00
   7   1    -0.00   0.01   0.01    -0.02  -0.04  -0.05    -0.01  -0.03  -0.03
   8   7     0.01   0.00   0.01     0.08  -0.01  -0.06     0.06  -0.01  -0.05
   9   6     0.02  -0.00   0.01     0.02  -0.02  -0.18     0.03  -0.01  -0.10
  10   1     0.03  -0.00   0.02    -0.13   0.02  -0.15    -0.04   0.01  -0.07
  11   1    -0.02   0.01   0.01     0.11  -0.10  -0.11     0.04  -0.05  -0.05
  12   1     0.00  -0.01  -0.02     0.01   0.06   0.08     0.01   0.02   0.02
  13   6     0.00  -0.00  -0.00     0.12   0.04   0.29     0.08   0.03   0.18
  14   1    -0.01  -0.01   0.00     0.11  -0.13   0.25     0.07  -0.08   0.15
  15   1     0.00  -0.00  -0.01     0.03  -0.04  -0.10     0.02  -0.03  -0.05
  16   1     0.00   0.00  -0.00    -0.02   0.23   0.17    -0.02   0.13   0.10
  17   6     0.00   0.00   0.01     0.00   0.07  -0.17    -0.00   0.06  -0.13
  18   1     0.00  -0.01   0.01    -0.02   0.13  -0.16    -0.02   0.11  -0.14
  19   1     0.01   0.01   0.00    -0.12  -0.03   0.01    -0.12  -0.05   0.02
  20   1    -0.01   0.00  -0.00     0.14  -0.00  -0.02     0.14  -0.01   0.00
  21   1    -0.00   0.00  -0.01    -0.03  -0.00  -0.06    -0.01  -0.00  -0.04
  22   6     0.00   0.00  -0.00     0.01   0.01  -0.00     0.01   0.00  -0.00
  23   8     0.00   0.00  -0.00     0.02   0.02   0.01     0.01   0.01   0.00
  24   7    -0.00  -0.01  -0.00     0.01  -0.02  -0.00     0.00  -0.01  -0.00
  25   1     0.01   0.01   0.00     0.01   0.00   0.01     0.00   0.00   0.00
  26   1     0.01   0.02   0.00     0.01  -0.00   0.00     0.00  -0.00  -0.00
  27   7    -0.01  -0.01   0.01    -0.00  -0.01   0.02    -0.00  -0.01   0.01
  28   1     0.00   0.01   0.01    -0.01   0.00   0.01    -0.00   0.01   0.01
  29   1     0.00   0.00   0.01     0.01  -0.00   0.02     0.01   0.00   0.01
  30   6    -0.00   0.02   0.02     0.00  -0.01  -0.03     0.00   0.01  -0.00
  31   8     0.01   0.03   0.03     0.02  -0.01  -0.02     0.01   0.01   0.00
  32   7    -0.01   0.02  -0.02     0.01   0.01   0.02     0.00   0.00  -0.00
  33   1    -0.00   0.01  -0.01     0.01   0.01   0.01     0.00  -0.00  -0.00
  34   1    -0.01  -0.01  -0.02     0.02   0.04   0.04     0.00   0.01   0.01
  35   7    -0.00  -0.02  -0.03     0.00   0.05   0.06    -0.00   0.01   0.01
  36   1     0.00   0.04   0.04    -0.02  -0.14  -0.16    -0.00  -0.01  -0.01
  37   1     0.00   0.02   0.03     0.00  -0.06  -0.06     0.00  -0.01  -0.01
  38   6    -0.01  -0.01   0.00    -0.04  -0.04   0.01     0.08   0.06  -0.02
  39   8    -0.00  -0.00  -0.00     0.01  -0.01  -0.01     0.00   0.01   0.00
  40   7     0.02   0.02  -0.01     0.11   0.10  -0.05    -0.16  -0.18   0.08
  41   1    -0.02  -0.02   0.01    -0.10  -0.10   0.03     0.17   0.16  -0.05
  42   1    -0.04  -0.04   0.02    -0.21  -0.18   0.08     0.34   0.30  -0.13
  43   7     0.03   0.02  -0.00     0.12   0.10  -0.02    -0.20  -0.16   0.01
  44   1    -0.05  -0.04   0.01    -0.23  -0.17   0.04     0.37   0.28  -0.07
  45   1    -0.03  -0.02   0.01    -0.11  -0.10   0.01     0.18   0.16  -0.04
  46   6     0.01  -0.03  -0.01    -0.01   0.03   0.01    -0.00  -0.00   0.00
  47   8     0.03  -0.04   0.00    -0.01   0.02   0.01    -0.00  -0.00  -0.00
  48   7     0.02   0.10  -0.01    -0.01  -0.03  -0.01     0.00   0.01  -0.01
  49   1    -0.01  -0.12  -0.02     0.00   0.02  -0.00    -0.00  -0.01  -0.01
  50   1    -0.07  -0.45  -0.06     0.01   0.06   0.01    -0.00  -0.05  -0.01
  51   7    -0.10  -0.24  -0.01    -0.02  -0.03  -0.01    -0.01  -0.03  -0.00
  52   1     0.14   0.68   0.03    -0.01   0.01  -0.00     0.01   0.08   0.00
  53   1     0.13   0.39   0.04     0.00   0.01  -0.00     0.01   0.04   0.00
                     34                     35                     36
                        a                      a                      a 
 Frequencies --   346.9882               362.0209               376.3425
 Red. masses --     2.7131                 5.5599                 1.7791
 Frc consts  --     0.0000                 0.0000                 0.0000
 IR Inten    --    58.3975                 6.4306                 3.5484
 Raman Activ --     0.0000                 0.0000                 0.0000
 Depolar     --     0.0000                 0.0000                 0.0000
 Atom AN      X      Y      Z        X      Y      Z        X      Y      Z
   1   8    -0.03   0.02  -0.00    -0.28   0.09  -0.06    -0.06   0.00  -0.02
   2   6    -0.04   0.05   0.03    -0.12  -0.06  -0.09    -0.01  -0.00   0.02
   3   1    -0.02   0.01   0.01    -0.09   0.01  -0.09     0.02  -0.01   0.02
   4   1    -0.01   0.02   0.01     0.03  -0.09  -0.05    -0.01   0.02   0.01
   5   6    -0.02   0.08   0.01     0.03   0.25   0.12    -0.03  -0.09  -0.04
   6   1     0.01   0.05  -0.04     0.11   0.15  -0.06    -0.04  -0.03  -0.00
   7   1    -0.01   0.05   0.03    -0.05   0.17   0.14     0.01  -0.05  -0.03
   8   7     0.01  -0.04  -0.02     0.10  -0.01   0.04    -0.02  -0.03  -0.03
   9   6     0.10  -0.04   0.06     0.25  -0.06   0.03     0.03  -0.03  -0.04
  10   1     0.08  -0.02   0.05    -0.03   0.01  -0.07    -0.28   0.03  -0.21
  11   1     0.01   0.03   0.03     0.20  -0.05  -0.05     0.30  -0.15  -0.16
  12   1     0.03  -0.04  -0.01     0.07  -0.02   0.15     0.01   0.09   0.33
  13   6     0.02  -0.09   0.03     0.11  -0.25   0.07    -0.00   0.04   0.14
  14   1     0.01  -0.14   0.13    -0.00  -0.15   0.09     0.02   0.28  -0.22
  15   1     0.01  -0.08  -0.16     0.09  -0.12  -0.06     0.03   0.13   0.44
  16   1     0.00   0.14   0.05     0.01  -0.01   0.05    -0.05  -0.35  -0.04
  17   6    -0.08  -0.01  -0.08    -0.11   0.05  -0.11     0.05   0.05  -0.09
  18   1    -0.04   0.07  -0.13     0.01  -0.24   0.14     0.02   0.05  -0.02
  19   1    -0.12  -0.05   0.03     0.17   0.26  -0.09     0.02   0.02  -0.03
  20   1     0.08  -0.02   0.02    -0.36   0.04  -0.20     0.04   0.00  -0.05
  21   1    -0.00  -0.01  -0.01    -0.05   0.02  -0.05    -0.01  -0.00  -0.02
  22   6     0.00   0.01   0.00     0.02   0.01  -0.00     0.01   0.01   0.00
  23   8     0.00   0.01   0.00     0.01   0.02   0.01     0.01   0.01   0.01
  24   7    -0.00  -0.00   0.00     0.02  -0.00   0.00    -0.00  -0.01   0.00
  25   1    -0.00  -0.00  -0.00     0.00  -0.01   0.00     0.00   0.00   0.00
  26   1     0.00   0.01   0.00     0.00  -0.01  -0.00     0.01   0.02   0.01
  27   7    -0.01  -0.00  -0.00     0.00  -0.01   0.03    -0.00  -0.01   0.00
  28   1    -0.00  -0.00  -0.00    -0.02  -0.01   0.01    -0.00  -0.00   0.00
  29   1     0.00   0.00   0.00     0.01  -0.01   0.02     0.00   0.00   0.00
  30   6    -0.00   0.05   0.09    -0.00   0.00  -0.00    -0.00   0.03   0.03
  31   8    -0.01   0.01   0.05     0.01  -0.00  -0.00    -0.01   0.02   0.02
  32   7    -0.01  -0.01  -0.05    -0.00  -0.01  -0.00     0.00  -0.01  -0.02
  33   1    -0.03  -0.04  -0.05     0.00   0.00   0.01    -0.01  -0.01  -0.01
  34   1    -0.07  -0.13  -0.14     0.01   0.02   0.02    -0.01  -0.04  -0.04
  35   7    -0.00  -0.16  -0.16    -0.01   0.01   0.01     0.01  -0.03  -0.04
  36   1     0.06   0.49   0.55    -0.01  -0.04  -0.04     0.02   0.16   0.18
  37   1    -0.00   0.16   0.15    -0.00  -0.01  -0.01     0.00   0.03   0.02
  38   6    -0.00  -0.01   0.00    -0.00  -0.00  -0.00    -0.01   0.01   0.00
  39   8     0.01  -0.00  -0.00    -0.02  -0.01   0.01     0.00   0.01  -0.00
  40   7     0.03   0.02  -0.01    -0.01  -0.01   0.01    -0.01   0.01  -0.01
  41   1    -0.02  -0.02   0.01     0.01   0.01  -0.00     0.00   0.00  -0.00
  42   1    -0.05  -0.05   0.02     0.03   0.02  -0.01    -0.01  -0.01   0.00
  43   7     0.03   0.02  -0.01    -0.01  -0.01  -0.00     0.01   0.00   0.01
  44   1    -0.06  -0.04   0.01     0.05   0.03  -0.01     0.00  -0.01   0.00
  45   1    -0.02  -0.02   0.00     0.01   0.01  -0.00    -0.00  -0.00   0.01
  46   6     0.01  -0.05  -0.03    -0.00   0.01  -0.00     0.00  -0.03  -0.00
  47   8     0.01  -0.03  -0.02    -0.00   0.00  -0.00     0.01  -0.02   0.00
  48   7     0.03   0.05  -0.01    -0.00  -0.01  -0.00     0.00   0.04   0.02
  49   1     0.00  -0.04  -0.01    -0.00   0.00   0.00    -0.00  -0.02   0.00
  50   1    -0.01  -0.11  -0.02     0.00   0.02   0.00    -0.02  -0.10  -0.01
  51   7     0.04   0.10  -0.02     0.00  -0.00   0.00     0.01   0.04  -0.00
  52   1    -0.03  -0.13  -0.01     0.00  -0.01   0.00    -0.01  -0.03  -0.00
  53   1    -0.02  -0.07  -0.02    -0.00  -0.00   0.00    -0.00  -0.02  -0.01
                     37                     38                     39
                        a                      a                      a 
 Frequencies --   380.2542               404.5511               417.9359
 Red. masses --     5.0503                 3.3559                 3.1425
 Frc consts  --     0.0000                 0.0000                 0.0000
 IR Inten    --     2.8906                38.4486               470.8070
 Raman Activ --     0.0000                 0.0000                 0.0000
 Depolar     --     0.0000                 0.0000                 0.0000
 Atom AN      X      Y      Z        X      Y      Z        X      Y      Z
   1   8     0.05  -0.01  -0.04     0.02  -0.01  -0.01    -0.01  -0.01  -0.01
   2   6    -0.12   0.13  -0.01    -0.01   0.02  -0.02     0.00   0.00   0.00
   3   1    -0.09   0.04  -0.02    -0.00   0.00  -0.00    -0.00  -0.00   0.00
   4   1    -0.02   0.01  -0.01    -0.01   0.00  -0.00    -0.00   0.00   0.00
   5   6    -0.08   0.20   0.07    -0.02  -0.02  -0.01    -0.00   0.00  -0.00
   6   1    -0.02   0.09  -0.03    -0.02  -0.02   0.01     0.00   0.01  -0.01
   7   1    -0.01   0.09   0.09     0.00  -0.02  -0.01    -0.00   0.00   0.00
   8   7    -0.05  -0.06   0.02    -0.02   0.00   0.01     0.00  -0.02  -0.00
   9   6     0.33  -0.14   0.17     0.01  -0.02  -0.03    -0.01  -0.01   0.01
  10   1     0.25  -0.03   0.13    -0.00   0.01  -0.03    -0.00  -0.01   0.01
  11   1     0.04   0.08   0.09     0.02  -0.02  -0.02    -0.01   0.00   0.01
  12   1     0.10  -0.18  -0.04     0.00  -0.01   0.01    -0.00   0.00  -0.00
  13   6    -0.05  -0.20   0.01    -0.02   0.01   0.03     0.01   0.01   0.01
  14   1    -0.05   0.05  -0.12    -0.00   0.00   0.01     0.01  -0.00   0.01
  15   1     0.05  -0.03   0.18    -0.00   0.00   0.02    -0.01   0.00  -0.01
  16   1    -0.04  -0.24  -0.03    -0.01  -0.01   0.01     0.00   0.02   0.01
  17   6    -0.11   0.11  -0.19     0.04   0.02   0.01     0.01  -0.01  -0.01
  18   1    -0.08   0.24  -0.29     0.02   0.01   0.03     0.00  -0.00  -0.00
  19   1    -0.26  -0.07   0.06     0.03   0.01  -0.01     0.00  -0.00  -0.00
  20   1     0.25  -0.02   0.00     0.00   0.00  -0.01     0.00  -0.00  -0.00
  21   1     0.00  -0.01   0.01    -0.01   0.02   0.02    -0.02   0.04   0.02
  22   6    -0.00  -0.01  -0.00    -0.04  -0.09  -0.02    -0.04  -0.10  -0.01
  23   8    -0.00  -0.00  -0.00    -0.05  -0.04  -0.01    -0.05  -0.04   0.01
  24   7     0.01   0.01  -0.00     0.10   0.18   0.02     0.10   0.20   0.01
  25   1    -0.00  -0.00  -0.00    -0.04  -0.04   0.01    -0.03  -0.02   0.01
  26   1    -0.01  -0.02  -0.01    -0.26  -0.52  -0.14    -0.30  -0.57  -0.15
  27   7     0.00   0.00   0.00     0.07   0.10   0.05     0.09   0.10   0.05
  28   1    -0.00   0.00   0.00    -0.03  -0.07  -0.02    -0.01  -0.08  -0.02
  29   1    -0.00  -0.00   0.00    -0.02  -0.04  -0.02    -0.02  -0.05  -0.03
  30   6    -0.00  -0.02  -0.02     0.01   0.01   0.01     0.01   0.02   0.01
  31   8     0.01  -0.01  -0.01     0.00   0.00   0.00     0.02   0.02   0.01
  32   7    -0.01   0.00   0.01    -0.00   0.01  -0.02    -0.02  -0.01  -0.04
  33   1     0.01   0.01   0.01     0.00   0.01   0.03     0.02   0.04   0.04
  34   1     0.02   0.05   0.05    -0.01  -0.05  -0.05     0.02   0.06   0.05
  35   7    -0.01   0.03   0.03    -0.01  -0.04  -0.02     0.01   0.03  -0.00
  36   1    -0.02  -0.14  -0.16     0.01   0.13   0.16    -0.01  -0.10  -0.12
  37   1    -0.00  -0.02  -0.02    -0.00  -0.00  -0.01     0.00   0.01   0.01
  38   6     0.01   0.00  -0.01     0.00   0.00   0.00    -0.00  -0.00   0.00
  39   8     0.01   0.01  -0.01    -0.00   0.00   0.00     0.00  -0.00   0.00
  40   7     0.01   0.01   0.00    -0.00  -0.00  -0.00     0.00   0.00  -0.01
  41   1    -0.00  -0.01   0.01     0.00   0.00  -0.00    -0.00   0.00  -0.00
  42   1    -0.02  -0.01   0.01     0.01   0.00  -0.00    -0.01  -0.01   0.00
  43   7     0.01   0.00  -0.00    -0.00  -0.00   0.00     0.00   0.01  -0.00
  44   1    -0.03  -0.03   0.01     0.01   0.00  -0.00    -0.01  -0.00   0.00
  45   1    -0.00  -0.00  -0.00    -0.00   0.00   0.00    -0.00  -0.00  -0.00
  46   6    -0.00   0.01   0.00     0.02   0.11   0.03    -0.02  -0.10  -0.02
  47   8    -0.00   0.01  -0.00     0.00   0.05   0.02    -0.00  -0.04  -0.01
  48   7    -0.01  -0.02  -0.00    -0.00  -0.19  -0.03     0.01   0.17   0.03
  49   1    -0.00   0.01   0.00     0.01   0.06  -0.01    -0.00  -0.04   0.01
  50   1     0.01   0.06   0.01     0.09   0.53   0.07    -0.08  -0.51  -0.06
  51   7    -0.01  -0.03   0.01    -0.06  -0.20  -0.03     0.04   0.17   0.02
  52   1     0.01   0.03   0.01     0.04   0.29  -0.00    -0.04  -0.24  -0.00
  53   1     0.00   0.01   0.01     0.04   0.08  -0.01    -0.03  -0.06   0.01
                     40                     41                     42
                        a                      a                      a 
 Frequencies --   424.4881               444.4545               454.9060
 Red. masses --     8.2860                 1.5745                 8.3753
 Frc consts  --     0.0000                 0.0000                 0.0000
 IR Inten    --     2.9553                 3.8382                 2.1126
 Raman Activ --     0.0000                 0.0000                 0.0000
 Depolar     --     0.0000                 0.0000                 0.0000
 Atom AN      X      Y      Z        X      Y      Z        X      Y      Z
   1   8    -0.22  -0.01   0.03     0.01   0.00  -0.00     0.03  -0.01   0.01
   2   6     0.07  -0.10   0.15    -0.02   0.01  -0.02    -0.09   0.04  -0.07
   3   1     0.04  -0.04   0.07    -0.01   0.00  -0.00    -0.02   0.01  -0.01
   4   1     0.02   0.02   0.05    -0.01   0.00  -0.00    -0.05   0.01  -0.01
   5   6     0.14   0.02  -0.05    -0.02   0.00  -0.02    -0.08   0.01  -0.14
   6   1     0.07   0.02  -0.03    -0.01  -0.00  -0.00    -0.05  -0.02  -0.02
   7   1    -0.02   0.04  -0.02    -0.00  -0.00  -0.01    -0.01  -0.02  -0.07
   8   7     0.27   0.10  -0.12    -0.01  -0.00  -0.01    -0.00   0.06  -0.12
   9   6    -0.10   0.33   0.13     0.01  -0.00   0.00     0.07   0.10   0.06
  10   1    -0.11   0.00   0.10     0.00  -0.00  -0.00     0.03   0.00   0.05
  11   1    -0.06   0.12   0.05     0.01   0.00  -0.00     0.03   0.08   0.02
  12   1    -0.03   0.20   0.03     0.00  -0.00   0.01     0.02   0.01   0.03
  13   6     0.28  -0.10  -0.17    -0.01  -0.00   0.03     0.02  -0.05   0.12
  14   1     0.01   0.03  -0.13     0.01  -0.00   0.01     0.03  -0.02   0.05
  15   1     0.13  -0.02   0.05     0.00  -0.00   0.01     0.05  -0.03   0.06
  16   1     0.07  -0.15  -0.08    -0.01   0.00   0.01    -0.06  -0.03   0.06
  17   6    -0.33  -0.23  -0.01     0.02  -0.00   0.00     0.04  -0.11   0.06
  18   1    -0.13  -0.15  -0.18     0.01  -0.01   0.02     0.02  -0.06   0.05
  19   1    -0.23  -0.14   0.06     0.02   0.00  -0.01     0.04  -0.07  -0.01
  20   1    -0.09  -0.01   0.16    -0.00  -0.00  -0.00    -0.01  -0.01   0.07
  21   1    -0.01  -0.01  -0.07    -0.00  -0.00   0.01    -0.00  -0.02   0.02
  22   6    -0.00  -0.00  -0.01     0.00   0.00   0.00     0.00  -0.00   0.01
  23   8    -0.01   0.01  -0.01     0.00  -0.00   0.00     0.01  -0.00   0.01
  24   7     0.03   0.00   0.01    -0.00   0.00  -0.00    -0.01   0.00  -0.00
  25   1     0.00  -0.01   0.01    -0.00   0.00  -0.00    -0.00   0.00  -0.01
  26   1    -0.02  -0.06  -0.01     0.00   0.00   0.00    -0.00   0.01   0.00
  27   7    -0.00   0.01   0.02     0.00  -0.00  -0.00     0.00  -0.00  -0.01
  28   1    -0.02  -0.01   0.00     0.00   0.00  -0.00     0.01  -0.00  -0.00
  29   1     0.01  -0.01   0.02    -0.00   0.00  -0.00    -0.00   0.00  -0.01
  30   6     0.00   0.00  -0.00    -0.00  -0.00   0.00     0.00  -0.00  -0.00
  31   8     0.00   0.00  -0.01    -0.00  -0.00   0.00     0.00   0.00   0.00
  32   7     0.00   0.00   0.00    -0.00   0.00   0.00     0.00  -0.00   0.00
  33   1    -0.00  -0.01  -0.01     0.00   0.00   0.00    -0.00  -0.00  -0.01
  34   1     0.01   0.01   0.01    -0.00  -0.00  -0.00     0.00   0.01   0.01
  35   7    -0.01  -0.01  -0.00     0.00   0.00  -0.00    -0.00  -0.00  -0.00
  36   1    -0.01  -0.01  -0.01     0.00   0.00   0.00    -0.00  -0.01  -0.01
  37   1    -0.00  -0.00   0.01     0.00   0.00  -0.00    -0.00   0.00   0.01
  38   6     0.00   0.00  -0.01     0.03  -0.02   0.06     0.12  -0.06   0.25
  39   8     0.00   0.01  -0.01     0.03  -0.02   0.06     0.14  -0.07   0.27
  40   7     0.00   0.01   0.01     0.10   0.03  -0.07     0.03  -0.22  -0.31
  41   1    -0.01  -0.02   0.01    -0.42  -0.27   0.02    -0.03   0.15  -0.23
  42   1     0.01   0.01   0.00     0.38   0.20  -0.19     0.04  -0.27  -0.14
  43   7     0.01  -0.01   0.01    -0.12  -0.02   0.03    -0.21   0.31  -0.05
  44   1    -0.03  -0.03   0.01    -0.42  -0.19   0.11    -0.08   0.30   0.06
  45   1     0.02   0.02   0.00     0.34   0.32  -0.20    -0.19  -0.05  -0.21
  46   6     0.00   0.01   0.00    -0.00  -0.00   0.00    -0.00   0.00   0.02
  47   8     0.00   0.01   0.00    -0.00  -0.00   0.00    -0.01   0.00   0.01
  48   7    -0.01  -0.02   0.01     0.00   0.00  -0.00     0.02  -0.00  -0.01
  49   1    -0.00   0.00   0.00     0.00  -0.00  -0.00     0.00   0.00  -0.01
  50   1     0.01   0.06   0.01     0.00  -0.00  -0.00     0.01  -0.01  -0.00
  51   7    -0.00  -0.02   0.00    -0.00   0.00  -0.00    -0.01   0.01  -0.01
  52   1     0.01   0.04   0.00    -0.00  -0.01  -0.00    -0.02   0.01  -0.01
  53   1     0.00   0.00  -0.00     0.00   0.00   0.00     0.00  -0.02  -0.02
                     43                     44                     45
                        a                      a                      a 
 Frequencies --   463.1792               464.6262               469.7553
 Red. masses --     6.9197                 7.4882                 6.8778
 Frc consts  --     0.0000                 0.0000                 0.0000
 IR Inten    --     5.9719                 1.7258                29.7643
 Raman Activ --     0.0000                 0.0000                 0.0000
 Depolar     --     0.0000                 0.0000                 0.0000
 Atom AN      X      Y      Z        X      Y      Z        X      Y      Z
   1   8     0.05  -0.03  -0.01     0.04  -0.02  -0.01    -0.07   0.02  -0.02
   2   6    -0.03   0.02  -0.04    -0.08   0.04  -0.07     0.07  -0.04   0.06
   3   1     0.01   0.00  -0.00    -0.01   0.01  -0.01     0.02  -0.01   0.01
   4   1    -0.02   0.01  -0.01    -0.04   0.01  -0.01     0.04  -0.00   0.01
   5   6    -0.10  -0.14  -0.06    -0.11  -0.09  -0.10     0.07  -0.01   0.10
   6   1    -0.11  -0.14   0.11    -0.10  -0.10   0.07     0.04   0.01   0.01
   7   1     0.01  -0.15  -0.16    -0.00  -0.11  -0.14     0.01   0.02   0.05
   8   7    -0.02   0.27   0.03    -0.01   0.20  -0.04     0.02  -0.03   0.09
   9   6     0.19   0.15  -0.17     0.17   0.14  -0.08    -0.05  -0.06  -0.04
  10   1     0.09   0.09  -0.09     0.08   0.06  -0.03    -0.02   0.00  -0.04
  11   1     0.07   0.00  -0.06     0.06   0.04  -0.03    -0.02  -0.05  -0.01
  12   1     0.06  -0.03  -0.04     0.05  -0.01  -0.02    -0.02   0.00  -0.03
  13   6    -0.03  -0.25   0.04    -0.00  -0.20   0.09    -0.00   0.04  -0.10
  14   1    -0.10  -0.12   0.03    -0.05  -0.09   0.05    -0.03   0.02  -0.05
  15   1     0.12  -0.13  -0.01     0.11  -0.10   0.02    -0.03   0.02  -0.03
  16   1    -0.04  -0.11   0.02    -0.05  -0.08   0.04     0.04   0.01  -0.05
  17   6    -0.09   0.10   0.22    -0.03   0.01   0.18    -0.06   0.08  -0.06
  18   1    -0.02  -0.01   0.06    -0.00  -0.04   0.07    -0.02   0.03  -0.05
  19   1    -0.02  -0.02   0.05     0.01  -0.05   0.03    -0.04   0.05   0.01
  20   1    -0.05   0.06   0.12    -0.04   0.03   0.12    -0.00   0.01  -0.05
  21   1    -0.01   0.02   0.04     0.00  -0.02   0.01     0.01  -0.01  -0.05
  22   6     0.01   0.01  -0.04    -0.01  -0.03   0.13    -0.01  -0.06   0.22
  23   8    -0.02   0.03  -0.04     0.08  -0.07   0.11     0.13  -0.13   0.20
  24   7     0.05  -0.03   0.01    -0.15   0.09  -0.05    -0.26   0.15  -0.09
  25   1     0.00  -0.01   0.02    -0.01   0.04  -0.08    -0.01   0.07  -0.14
  26   1     0.03  -0.02  -0.00    -0.10   0.07   0.01    -0.19   0.10   0.01
  27   7    -0.03   0.00   0.04     0.10  -0.01  -0.12     0.18  -0.01  -0.19
  28   1    -0.04   0.01   0.02     0.14  -0.04  -0.06     0.24  -0.06  -0.09
  29   1     0.01  -0.02   0.04    -0.04   0.04  -0.13    -0.08   0.06  -0.22
  30   6    -0.01  -0.06   0.02     0.03   0.09  -0.04     0.04   0.08  -0.04
  31   8    -0.04  -0.05   0.03     0.04   0.09  -0.04     0.02   0.09  -0.04
  32   7    -0.03   0.10  -0.03     0.07  -0.13   0.04     0.08  -0.09   0.02
  33   1     0.02   0.06   0.02    -0.02  -0.08  -0.01    -0.02  -0.06  -0.02
  34   1    -0.08  -0.08  -0.12     0.11   0.08   0.13     0.09   0.07   0.10
  35   7     0.09   0.03  -0.01    -0.12  -0.04   0.02    -0.13  -0.07   0.04
  36   1     0.07  -0.00  -0.00    -0.10   0.03   0.03    -0.10   0.05   0.06
  37   1     0.01   0.02  -0.04    -0.02  -0.07   0.04    -0.02  -0.10   0.03
  38   6    -0.01   0.01  -0.03    -0.03   0.02  -0.06     0.02  -0.01   0.04
  39   8    -0.01   0.01  -0.03    -0.04   0.02  -0.07     0.02  -0.01   0.05
  40   7    -0.01   0.02   0.03    -0.02   0.06   0.07     0.01  -0.04  -0.05
  41   1     0.01  -0.01   0.02     0.02  -0.03   0.06    -0.02   0.02  -0.04
  42   1    -0.01   0.03   0.02    -0.02   0.06   0.04     0.02  -0.04  -0.03
  43   7     0.02  -0.03   0.01     0.06  -0.08   0.01    -0.04   0.05  -0.00
  44   1     0.01  -0.03  -0.01     0.02  -0.08  -0.02    -0.02   0.05   0.01
  45   1     0.01   0.00   0.03     0.04   0.01   0.06    -0.03  -0.00  -0.04
  46   6    -0.01   0.01  -0.14     0.01  -0.01   0.13    -0.02  -0.01  -0.06
  47   8     0.13  -0.03  -0.12    -0.13   0.03   0.12     0.08  -0.04  -0.05
  48   7    -0.18   0.06   0.05     0.18  -0.04  -0.05    -0.08   0.05   0.02
  49   1    -0.04  -0.03   0.07     0.04   0.03  -0.07    -0.02  -0.03   0.02
  50   1    -0.11   0.04   0.00     0.10  -0.10  -0.01    -0.03   0.10   0.01
  51   7     0.06  -0.06   0.12    -0.06   0.07  -0.12    -0.01  -0.06   0.02
  52   1     0.15  -0.22   0.07    -0.15   0.15  -0.07     0.08  -0.23   0.03
  53   1    -0.02   0.28   0.23     0.03  -0.23  -0.21     0.03   0.39   0.17
                     46                     47                     48
                        a                      a                      a 
 Frequencies --   471.9481               478.0906               486.8092
 Red. masses --     7.2487                 6.8282                 3.3722
 Frc consts  --     0.0000                 0.0000                 0.0000
 IR Inten    --    41.9964                33.2368               182.1310
 Raman Activ --     0.0000                 0.0000                 0.0000
 Depolar     --     0.0000                 0.0000                 0.0000
 Atom AN      X      Y      Z        X      Y      Z        X      Y      Z
   1   8    -0.03   0.00  -0.01    -0.02  -0.00  -0.02    -0.02  -0.01  -0.03
   2   6     0.18  -0.08   0.12    -0.05   0.02  -0.03    -0.03   0.00  -0.01
   3   1     0.05  -0.02   0.02    -0.02   0.00  -0.00    -0.02   0.00  -0.00
   4   1     0.09  -0.02   0.02    -0.02   0.01  -0.01    -0.00   0.00  -0.00
   5   6     0.11  -0.12   0.24    -0.03   0.03  -0.05    -0.01   0.03   0.00
   6   1     0.03  -0.06   0.10    -0.00   0.02  -0.03    -0.00   0.01  -0.01
   7   1     0.03  -0.06   0.03    -0.01   0.02  -0.00    -0.01   0.02   0.01
   8   7     0.00   0.09   0.25     0.01  -0.03  -0.06     0.02  -0.02  -0.01
   9   6    -0.00  -0.08  -0.25    -0.01   0.02   0.07    -0.00   0.00   0.04
  10   1     0.02   0.07  -0.16    -0.01  -0.02   0.04    -0.01  -0.01   0.02
  11   1    -0.02  -0.15  -0.08     0.00   0.03   0.02    -0.00   0.01   0.01
  12   1    -0.00  -0.04  -0.10    -0.00   0.01   0.03    -0.00   0.00   0.00
  13   6    -0.06  -0.09  -0.24     0.03   0.03   0.07     0.03   0.01   0.01
  14   1    -0.14  -0.03  -0.11     0.05   0.01   0.03     0.02   0.01   0.00
  15   1    -0.01  -0.04  -0.11    -0.00   0.01   0.02     0.00   0.01   0.01
  16   1     0.08  -0.06  -0.13    -0.02   0.03   0.04     0.00   0.00   0.01
  17   6    -0.20   0.29   0.01     0.05  -0.08  -0.02     0.01  -0.03  -0.02
  18   1    -0.07   0.09  -0.07     0.02  -0.03   0.01     0.00  -0.01  -0.01
  19   1    -0.12   0.13   0.05     0.03  -0.03  -0.01    -0.00  -0.01  -0.00
  20   1    -0.03   0.06  -0.05     0.01  -0.02   0.01     0.00  -0.01  -0.00
  21   1     0.01   0.03  -0.03    -0.01  -0.01   0.00     0.01  -0.04  -0.03
  22   6     0.00   0.00  -0.02    -0.00  -0.03   0.12     0.00  -0.02   0.05
  23   8    -0.02   0.01  -0.02     0.08  -0.07   0.11     0.04  -0.03   0.05
  24   7     0.03  -0.01   0.01    -0.15   0.09  -0.06    -0.07   0.07  -0.04
  25   1     0.00  -0.01   0.02    -0.01   0.04  -0.08    -0.01   0.01  -0.04
  26   1     0.01  -0.02  -0.00    -0.11   0.06   0.00    -0.06   0.03  -0.00
  27   7    -0.02   0.00   0.02     0.10  -0.01  -0.10     0.05  -0.00  -0.05
  28   1    -0.02   0.00   0.01     0.14  -0.03  -0.05     0.03  -0.07  -0.04
  29   1     0.01  -0.01   0.02    -0.05   0.02  -0.13     0.01   0.08  -0.03
  30   6    -0.00   0.00  -0.01     0.00  -0.06   0.02     0.00  -0.02  -0.07
  31   8    -0.00   0.00  -0.02    -0.04  -0.05   0.02    -0.05  -0.02  -0.10
  32   7     0.02  -0.00   0.02    -0.03   0.11  -0.03     0.12   0.17   0.18
  33   1    -0.00  -0.00   0.04     0.03   0.06  -0.01    -0.02   0.03   0.24
  34   1    -0.00  -0.07  -0.06    -0.07  -0.03  -0.07    -0.09  -0.62  -0.54
  35   7    -0.00   0.02   0.01     0.06  -0.01   0.01    -0.03   0.06   0.15
  36   1     0.00   0.02   0.02     0.03  -0.03  -0.01    -0.04  -0.09  -0.09
[...]
  44   1    -0.00   0.00  -0.00    -0.00   0.00  -0.00     0.00   0.00  -0.00
  45   1     0.00  -0.00   0.00     0.00  -0.00   0.00     0.00  -0.00   0.00
  46   6    -0.00  -0.00   0.00     0.00   0.00  -0.01    -0.00  -0.00   0.01
  47   8     0.00   0.00  -0.00    -0.00  -0.00   0.01     0.00   0.00  -0.00
  48   7     0.00  -0.00  -0.00     0.02  -0.00  -0.00    -0.04   0.00   0.00
  49   1    -0.02   0.00   0.00    -0.07   0.00   0.02     0.15  -0.01  -0.05
  50   1     0.00  -0.00  -0.00     0.00   0.00  -0.01    -0.01  -0.00   0.02
  51   7     0.00   0.00  -0.00    -0.00  -0.00   0.00     0.00   0.00  -0.00
  52   1    -0.00  -0.00   0.00    -0.00   0.00   0.00     0.00  -0.00  -0.00
  53   1     0.00  -0.00   0.00    -0.01   0.00  -0.01     0.01  -0.00   0.01
                    142                    143                    144
                        a                      a                      a 
 Frequencies --  3495.7961              3500.5819              3501.0504
 Red. masses --     1.4521                 1.4384                 1.4443
 Frc consts  --     0.0000                 0.0000                 0.0000
 IR Inten    --    16.5921                39.8851                22.4478
 Raman Activ --     0.0000                 0.0000                 0.0000
 Depolar     --     0.0000                 0.0000                 0.0000
 Atom AN      X      Y      Z        X      Y      Z        X      Y      Z
   1   8     0.00   0.00   0.00    -0.00  -0.00  -0.00    -0.00  -0.00  -0.00
   2   6    -0.00   0.00   0.00    -0.00   0.00   0.00    -0.00   0.00  -0.00
   3   1     0.00  -0.00  -0.00     0.00  -0.00  -0.00     0.00   0.00  -0.00
   4   1    -0.00  -0.00  -0.00    -0.00   0.00  -0.00     0.00   0.00   0.00
   5   6     0.00  -0.00  -0.00     0.00  -0.00  -0.00     0.00   0.00   0.00
   6   1    -0.00   0.00   0.00    -0.00   0.00  -0.00    -0.00  -0.00  -0.00
   7   1    -0.00   0.00   0.00    -0.00   0.00   0.00     0.00   0.00  -0.00
   8   7    -0.00  -0.00   0.00     0.00  -0.00  -0.00    -0.00   0.00  -0.00
   9   6     0.00  -0.00  -0.00    -0.00   0.00  -0.00    -0.00  -0.00  -0.00
  10   1    -0.00   0.00   0.00    -0.00  -0.00  -0.00    -0.00  -0.00  -0.00
  11   1     0.00  -0.00   0.00     0.00   0.00   0.00     0.00   0.00   0.00
  12   1     0.00  -0.00  -0.00     0.00   0.00  -0.00     0.00  -0.00   0.00
  13   6     0.00  -0.00  -0.00    -0.00   0.00  -0.00    -0.00   0.00  -0.00
  14   1    -0.00   0.00   0.00    -0.00  -0.00  -0.00     0.00  -0.00  -0.00
  15   1     0.00   0.00   0.00    -0.00  -0.00   0.00     0.00   0.00   0.00
  16   1     0.00  -0.00  -0.00     0.00   0.00   0.00     0.00  -0.00   0.00
  17   6    -0.00   0.00  -0.00    -0.00   0.00   0.00    -0.00   0.00  -0.00
  18   1    -0.00  -0.00  -0.00     0.00   0.00   0.00     0.00   0.00   0.00
  19   1     0.00  -0.00   0.00    -0.00   0.00  -0.00     0.00  -0.00   0.00
  20   1     0.00   0.00  -0.00    -0.00  -0.00   0.00     0.00   0.00   0.00
  21   1    -0.00  -0.00  -0.00     0.00   0.00   0.00     0.01   0.00   0.01
  22   6    -0.00   0.00   0.00    -0.00   0.00   0.00     0.00  -0.00   0.00
  23   8     0.00   0.00  -0.00     0.00  -0.00  -0.00     0.00   0.00  -0.00
  24   7     0.00  -0.00  -0.00     0.00  -0.00   0.00    -0.01   0.01  -0.01
  25   1    -0.00   0.00  -0.00    -0.00   0.00  -0.00     0.01  -0.01   0.00
  26   1     0.00  -0.00   0.00    -0.00  -0.00   0.00     0.01  -0.01   0.05
  27   7     0.00  -0.00   0.00     0.00  -0.00   0.00     0.15  -0.09   0.06
  28   1    -0.00   0.00  -0.00    -0.00   0.00  -0.00    -0.05   0.25  -0.66
  29   1    -0.00   0.00   0.00    -0.00   0.00   0.00    -0.51   0.07   0.45
  30   6    -0.00  -0.00   0.00    -0.00   0.00  -0.00     0.00  -0.00   0.00
  31   8     0.00   0.00  -0.00     0.00  -0.00   0.00    -0.00   0.00  -0.00
  32   7     0.00   0.00  -0.00     0.00  -0.00   0.00    -0.00  -0.00   0.00
  33   1    -0.00   0.00  -0.00    -0.00   0.00  -0.00     0.01  -0.01   0.00
  34   1    -0.00  -0.00   0.00     0.00   0.00  -0.00     0.00   0.01  -0.01
  35   7     0.00  -0.00   0.00     0.00  -0.00   0.00    -0.00   0.00  -0.00
  36   1     0.00   0.00  -0.00    -0.00   0.00  -0.00    -0.00  -0.00   0.00
  37   1    -0.01  -0.00   0.00    -0.00  -0.00   0.00     0.00   0.00  -0.00
  38   6     0.00  -0.00   0.00     0.00  -0.00  -0.00     0.00  -0.00   0.00
  39   8    -0.00   0.00  -0.00     0.00  -0.00  -0.00    -0.00   0.00  -0.00
  40   7     0.00  -0.00   0.00     0.10  -0.09   0.02    -0.00   0.00  -0.00
  41   1    -0.00   0.00   0.00    -0.11   0.25   0.39     0.00  -0.00  -0.00
  42   1    -0.00   0.00  -0.00    -0.26   0.09  -0.46     0.00  -0.00   0.00
  43   7     0.00  -0.00  -0.00     0.03  -0.05  -0.11    -0.00   0.00   0.00
  44   1     0.00  -0.00   0.00     0.19  -0.14   0.44    -0.00   0.00  -0.00
  45   1    -0.00   0.00  -0.00    -0.29   0.33  -0.02     0.00  -0.00   0.00
  46   6    -0.00   0.00   0.00    -0.00   0.00  -0.00     0.00  -0.00   0.00
  47   8     0.00   0.00  -0.00     0.00  -0.00   0.00    -0.00   0.00   0.00
  48   7     0.01  -0.00  -0.01     0.00  -0.00   0.00    -0.00   0.00  -0.00
  49   1    -0.01  -0.00   0.00    -0.00   0.00   0.00     0.00  -0.00  -0.00
  50   1    -0.01  -0.00   0.03     0.00   0.00  -0.00    -0.00  -0.00   0.00
  51   7    -0.16   0.05   0.07     0.00  -0.00  -0.00     0.00  -0.00  -0.00
  52   1     0.14  -0.00  -0.70    -0.00   0.00   0.01    -0.00   0.00   0.00
  53   1     0.46  -0.21   0.44    -0.00   0.00  -0.00    -0.00   0.00  -0.00
                    145                    146                    147
                        a                      a                      a 
 Frequencies --  3504.9019              3521.0173              3532.9240
 Red. masses --     1.4627                 1.9070                 1.8974
 Frc consts  --     0.0000                 0.0000                 0.0000
 IR Inten    --     8.3707                11.7341                12.7827
 Raman Activ --     0.0000                 0.0000                 0.0000
 Depolar     --     0.0000                 0.0000                 0.0000
 Atom AN      X      Y      Z        X      Y      Z        X      Y      Z
   1   8     0.00   0.00   0.00    -0.00  -0.00  -0.00     0.00  -0.00   0.00
   2   6    -0.00   0.00   0.00    -0.00   0.00  -0.00     0.00  -0.00   0.00
   3   1     0.00  -0.00   0.00    -0.00   0.00   0.00    -0.00   0.00  -0.00
   4   1     0.00  -0.00  -0.00     0.00  -0.00   0.00     0.00   0.00  -0.00
   5   6     0.00   0.00  -0.00     0.00   0.00  -0.00     0.00   0.00   0.00
   6   1     0.00  -0.00  -0.00    -0.00   0.00  -0.00    -0.00  -0.00  -0.00
   7   1    -0.00  -0.00   0.00    -0.00  -0.00   0.00    -0.00  -0.00  -0.00
   8   7     0.00  -0.00  -0.00     0.00   0.00   0.00    -0.00   0.00  -0.00
   9   6     0.00  -0.00   0.00    -0.00   0.00   0.00    -0.00   0.00   0.00
  10   1     0.00  -0.00   0.00     0.00  -0.00  -0.00    -0.00  -0.00  -0.00
  11   1    -0.00  -0.00  -0.00    -0.00  -0.00  -0.00    -0.00  -0.00  -0.00
  12   1    -0.00   0.00   0.00     0.00   0.00   0.00     0.00  -0.00   0.00
  13   6     0.00  -0.00   0.00    -0.00   0.00   0.00     0.00   0.00   0.00
  14   1     0.00  -0.00   0.00     0.00  -0.00  -0.00    -0.00  -0.00  -0.00
  15   1    -0.00  -0.00   0.00    -0.00  -0.00  -0.00    -0.00   0.00  -0.00
  16   1    -0.00   0.00  -0.00    -0.00  -0.00   0.00    -0.00   0.00  -0.00
  17   6     0.00  -0.00   0.00     0.00  -0.00  -0.00     0.00  -0.00   0.00
  18   1     0.00   0.00   0.00    -0.00   0.00   0.00    -0.00   0.00   0.00
  19   1    -0.00   0.00  -0.00     0.00  -0.00   0.00    -0.00   0.00  -0.00
  20   1    -0.00  -0.00   0.00     0.00   0.00  -0.00    -0.00   0.00  -0.00
  21   1    -0.00  -0.00  -0.00     0.01   0.00   0.00    -0.00  -0.00   0.00
  22   6    -0.00   0.00  -0.00     0.00   0.00  -0.00    -0.01   0.00  -0.01
  23   8     0.00  -0.00   0.00    -0.00  -0.00   0.00     0.00  -0.00   0.00
  24   7     0.00  -0.00   0.00    -0.00   0.00  -0.00    -0.04   0.08  -0.24
  25   1    -0.00   0.00  -0.00     0.00  -0.00   0.00     0.06  -0.05   0.00
  26   1    -0.00   0.00  -0.00     0.00  -0.00   0.01     0.09  -0.27   0.91
  27   7    -0.00   0.00  -0.00     0.00  -0.00   0.00    -0.02   0.00   0.02
  28   1     0.00  -0.00   0.00    -0.00   0.00  -0.01    -0.00   0.00  -0.01
  29   1     0.00  -0.00  -0.00    -0.00   0.00   0.00     0.06  -0.01  -0.05
  30   6    -0.00  -0.00  -0.00    -0.00   0.01  -0.01     0.00   0.00  -0.00
  31   8     0.00   0.00   0.00     0.00  -0.00   0.00    -0.00  -0.00   0.00
  32   7     0.00   0.00  -0.00     0.03   0.18  -0.19    -0.00  -0.00   0.00
  33   1    -0.00   0.00  -0.00     0.08  -0.07  -0.00     0.00  -0.00   0.00
  34   1    -0.00  -0.00   0.00    -0.18  -0.60   0.71     0.00   0.01  -0.01
  35   7     0.00   0.00  -0.00    -0.01  -0.03   0.02    -0.00  -0.00   0.00
  36   1    -0.00  -0.00   0.00     0.03   0.09  -0.09     0.00   0.01  -0.01
  37   1     0.00  -0.00  -0.00     0.02   0.00  -0.00    -0.00  -0.00   0.00
  38   6    -0.00   0.00  -0.00     0.00  -0.00   0.00    -0.00  -0.00  -0.00
  39   8     0.00  -0.00   0.00    -0.00   0.00  -0.00     0.00   0.00   0.00
  40   7    -0.09   0.09  -0.01     0.00  -0.00  -0.00    -0.00   0.00   0.00
  41   1     0.11  -0.24  -0.37    -0.00   0.00   0.00     0.00  -0.00  -0.00
  42   1     0.23  -0.08   0.42    -0.00   0.00  -0.00     0.00   0.00   0.00
  43   7     0.03  -0.06  -0.12    -0.00   0.00   0.00    -0.00   0.00  -0.00
  44   1     0.20  -0.15   0.47    -0.00   0.00  -0.00     0.00  -0.00   0.00
  45   1    -0.32   0.36  -0.03     0.00  -0.00   0.00     0.00  -0.00  -0.00
  46   6     0.00  -0.00  -0.00    -0.00  -0.00   0.00    -0.00   0.00   0.00
  47   8    -0.00   0.00   0.00     0.00   0.00  -0.00     0.00   0.00  -0.00
  48   7    -0.00   0.00   0.00     0.00  -0.00   0.00    -0.00  -0.00   0.01
  49   1     0.00  -0.00  -0.00    -0.00   0.00   0.00    -0.00   0.00   0.00
  50   1    -0.00  -0.00  -0.00     0.00   0.00  -0.01     0.01   0.00  -0.03
  51   7    -0.00   0.00   0.00     0.00  -0.00  -0.00    -0.00   0.00  -0.00
  52   1     0.00  -0.00  -0.00    -0.00  -0.00   0.00    -0.00   0.00   0.00
  53   1     0.00  -0.00   0.00    -0.00   0.00  -0.00     0.00  -0.00   0.00
                    148                    149                    150
                        a                      a                      a 
 Frequencies --  3539.2517              3541.3657              3559.9958
 Red. masses --     1.9026                 1.9308                 2.1738
 Frc consts  --     0.0000                 0.0000                 0.0000
 IR Inten    --    16.0300                20.8779                12.9475
 Raman Activ --     0.0000                 0.0000                 0.0000
 Depolar     --     0.0000                 0.0000                 0.0000
 Atom AN      X      Y      Z        X      Y      Z        X      Y      Z
   1   8     0.00  -0.00  -0.00     0.00   0.00   0.00     0.00   0.00   0.00
   2   6     0.00   0.00   0.00     0.00  -0.00   0.00    -0.00  -0.00  -0.00
   3   1    -0.00  -0.00  -0.00     0.00  -0.00  -0.00     0.00  -0.00  -0.00
   4   1    -0.00   0.00   0.00    -0.00   0.00  -0.00     0.00  -0.00  -0.00
   5   6     0.00   0.00   0.00    -0.00  -0.00   0.00     0.00  -0.00  -0.00
   6   1     0.00  -0.00  -0.00     0.00   0.00   0.00    -0.00   0.00   0.00
   7   1    -0.00  -0.00   0.00     0.00  -0.00  -0.00     0.00   0.00  -0.00
   8   7     0.00   0.00   0.00    -0.00   0.00   0.00    -0.00  -0.00   0.00
   9   6    -0.00  -0.00  -0.00    -0.00   0.00   0.00     0.00  -0.00  -0.00
  10   1    -0.00   0.00  -0.00    -0.00  -0.00  -0.00    -0.00   0.00   0.00
  11   1     0.00   0.00   0.00     0.00   0.00   0.00     0.00  -0.00   0.00
  12   1     0.00   0.00   0.00     0.00  -0.00  -0.00    -0.00  -0.00  -0.00
  13   6     0.00  -0.00  -0.00    -0.00   0.00   0.00     0.00  -0.00  -0.00
  14   1    -0.00   0.00   0.00     0.00  -0.00  -0.00    -0.00   0.00   0.00
  15   1    -0.00  -0.00   0.00     0.00   0.00   0.00     0.00   0.00  -0.00
  16   1    -0.00   0.00  -0.00    -0.00   0.00  -0.00     0.00  -0.00   0.00
  17   6     0.00  -0.00  -0.00     0.00   0.00   0.00    -0.00   0.00  -0.00
  18   1    -0.00  -0.00   0.00     0.00  -0.00  -0.00     0.00  -0.00  -0.00
  19   1     0.00   0.00   0.00    -0.00   0.00  -0.00     0.00  -0.00   0.00
  20   1     0.00   0.00   0.00     0.00   0.00   0.00    -0.00  -0.00  -0.00
  21   1    -0.00   0.00   0.00    -0.00  -0.00  -0.00    -0.00  -0.00  -0.00
  22   6     0.00  -0.00   0.00     0.00  -0.00   0.00    -0.00  -0.00  -0.00
  23   8     0.00  -0.00  -0.00    -0.00   0.00  -0.00     0.00   0.00   0.00
  24   7     0.00  -0.00   0.01     0.00  -0.00   0.00    -0.00   0.00  -0.00
  25   1    -0.01   0.00  -0.00    -0.00   0.00  -0.00     0.00  -0.00   0.00
  26   1    -0.00   0.01  -0.03    -0.00   0.00  -0.01     0.00  -0.00   0.00
  27   7     0.00  -0.00  -0.00     0.00   0.00  -0.00    -0.00  -0.00   0.00
  28   1     0.00  -0.00   0.00     0.00  -0.00   0.00    -0.00   0.00  -0.00
  29   1    -0.00   0.00   0.00    -0.00   0.00   0.00     0.00  -0.00  -0.00
  30   6    -0.00  -0.00   0.00    -0.01  -0.00   0.01     0.00   0.00  -0.00
  31   8     0.00   0.00  -0.00     0.00   0.00  -0.00    -0.00  -0.00   0.00
  32   7     0.00  -0.00   0.00    -0.00  -0.02   0.03    -0.00   0.00  -0.00
  33   1    -0.00   0.00  -0.00    -0.01   0.01   0.00     0.00  -0.00   0.00
  34   1     0.00   0.01  -0.01     0.03   0.08  -0.10    -0.00  -0.00   0.00
  35   7    -0.01  -0.01   0.01    -0.09  -0.18   0.17     0.00   0.00  -0.00
  36   1     0.01   0.04  -0.04     0.22   0.67  -0.62    -0.00  -0.01   0.01
  37   1     0.01   0.00  -0.00     0.13   0.01  -0.01    -0.01  -0.00   0.00
  38   6     0.00  -0.00   0.00    -0.00   0.00  -0.00     0.00  -0.00  -0.00
  39   8    -0.00   0.00  -0.00     0.00  -0.00   0.00    -0.00   0.00  -0.00
  40   7     0.00   0.00   0.00    -0.00   0.00   0.00    -0.00  -0.00  -0.00
  41   1     0.00  -0.00  -0.00     0.00  -0.00  -0.00    -0.00   0.00   0.01
  42   1    -0.00   0.00  -0.00     0.00   0.00   0.00     0.00  -0.00   0.01
  43   7    -0.00  -0.00   0.00     0.00  -0.00  -0.00     0.00  -0.00   0.00
  44   1     0.00   0.00   0.00     0.00  -0.00   0.00    -0.00   0.00  -0.00
  45   1     0.00   0.00   0.00    -0.00   0.00  -0.00    -0.00   0.00  -0.00
  46   6    -0.01   0.00   0.01     0.00  -0.00   0.00    -0.00   0.00  -0.01
  47   8     0.00   0.00  -0.00     0.00   0.00  -0.00     0.00  -0.00   0.00
  48   7    -0.07  -0.02   0.25     0.00   0.00  -0.02     0.01   0.00  -0.03
  49   1     0.08  -0.01  -0.00     0.00   0.00  -0.00    -0.01   0.00   0.00
  50   1     0.21   0.09  -0.93    -0.01  -0.01   0.06    -0.02  -0.01   0.11
  51   7    -0.02   0.01  -0.03     0.00   0.00  -0.00    -0.09   0.05  -0.28
  52   1    -0.01   0.00   0.05    -0.00  -0.00   0.01    -0.15   0.01   0.63
  53   1     0.08  -0.03   0.07     0.00  -0.00   0.00     0.49  -0.22   0.43
                    151                    152                    153
                        a                      a                      a 
 Frequencies --  3565.1065              3568.7273              3570.5855
 Red. masses --     2.1908                 2.1890                 2.1773
 Frc consts  --     0.0000                 0.0000                 0.0000
 IR Inten    --    13.5281                16.7624                11.8110
 Raman Activ --     0.0000                 0.0000                 0.0000
 Depolar     --     0.0000                 0.0000                 0.0000
 Atom AN      X      Y      Z        X      Y      Z        X      Y      Z
   1   8     0.00  -0.00  -0.00     0.00   0.00   0.00     0.00  -0.00   0.00
   2   6    -0.00   0.00   0.00    -0.00  -0.00  -0.00    -0.00   0.00   0.00
   3   1     0.00  -0.00  -0.00    -0.00  -0.00  -0.00    -0.00   0.00   0.00
   4   1    -0.00   0.00  -0.00    -0.00  -0.00   0.00     0.00  -0.00   0.00
   5   6    -0.00  -0.00  -0.00    -0.00  -0.00  -0.00    -0.00   0.00  -0.00
   6   1    -0.00   0.00   0.00     0.00   0.00   0.00     0.00  -0.00  -0.00
   7   1    -0.00   0.00   0.00     0.00   0.00   0.00     0.00  -0.00   0.00
   8   7     0.00  -0.00  -0.00    -0.00  -0.00   0.00    -0.00  -0.00  -0.00
   9   6    -0.00   0.00  -0.00     0.00  -0.00   0.00     0.00   0.00   0.00
  10   1    -0.00   0.00   0.00     0.00   0.00   0.00     0.00  -0.00   0.00
  11   1     0.00  -0.00   0.00     0.00   0.00  -0.00    -0.00  -0.00  -0.00
  12   1    -0.00   0.00  -0.00    -0.00   0.00  -0.00    -0.00  -0.00   0.00
  13   6    -0.00   0.00  -0.00    -0.00  -0.00   0.00     0.00  -0.00   0.00
  14   1    -0.00   0.00  -0.00     0.00   0.00   0.00     0.00  -0.00   0.00
  15   1    -0.00   0.00  -0.00     0.00   0.00  -0.00     0.00   0.00   0.00
  16   1     0.00  -0.00   0.00     0.00   0.00  -0.00    -0.00   0.00  -0.00
  17   6     0.00  -0.00   0.00    -0.00   0.00   0.00     0.00  -0.00   0.00
  18   1     0.00   0.00   0.00     0.00  -0.00  -0.00     0.00   0.00   0.00
  19   1    -0.00   0.00  -0.00     0.00   0.00  -0.00    -0.00   0.00  -0.00
  20   1    -0.00  -0.00   0.00    -0.00  -0.00   0.00     0.00  -0.00   0.00
  21   1     0.00   0.00   0.00    -0.01  -0.00  -0.00    -0.00  -0.00  -0.00
  22   6    -0.00   0.00   0.00    -0.01  -0.00   0.01     0.00   0.00  -0.00
  23   8     0.00  -0.00  -0.00     0.00   0.00  -0.00     0.00  -0.00   0.00
  24   7     0.00  -0.00  -0.00     0.00  -0.01   0.02    -0.00   0.00  -0.00
  25   1    -0.00   0.00  -0.00    -0.01   0.00  -0.00     0.00  -0.00  -0.00
  26   1     0.00  -0.00   0.00    -0.01   0.02  -0.06     0.00  -0.00   0.00
  27   7    -0.00  -0.00   0.00    -0.12  -0.04   0.27     0.00   0.00  -0.00
  28   1    -0.00   0.00  -0.00    -0.07   0.24  -0.61     0.00  -0.00   0.00
  29   1     0.00  -0.00  -0.00     0.53  -0.08  -0.43    -0.00   0.00   0.00
  30   6    -0.00   0.00  -0.00    -0.00  -0.00   0.00     0.00  -0.00  -0.00
  31   8     0.00  -0.00   0.00     0.00   0.00  -0.00    -0.00   0.00   0.00
  32   7     0.00  -0.00   0.00     0.00  -0.00   0.00     0.00   0.00  -0.00
  33   1    -0.00   0.00  -0.00    -0.01   0.01  -0.00     0.00  -0.00  -0.00
  34   1     0.00   0.00  -0.00     0.00   0.00  -0.00    -0.00  -0.00   0.00
  35   7     0.00  -0.00   0.00    -0.00  -0.00   0.00    -0.00   0.00  -0.00
  36   1     0.00   0.00  -0.00     0.00   0.00  -0.00    -0.00  -0.00   0.00
  37   1    -0.00  -0.00   0.00     0.00   0.00  -0.00     0.00   0.00  -0.00
  38   6     0.00  -0.01  -0.00     0.00   0.00   0.00     0.01  -0.00   0.01
  39   8    -0.00   0.00   0.00     0.00  -0.00   0.00    -0.00   0.00  -0.00
  40   7    -0.03  -0.05  -0.21     0.00   0.00   0.00     0.03   0.05   0.20
  41   1    -0.14   0.27   0.41     0.00  -0.00  -0.00     0.13  -0.26  -0.39
  42   1     0.23  -0.08   0.38    -0.00   0.00  -0.00    -0.23   0.08  -0.38
  43   7     0.13  -0.13   0.11     0.00  -0.00   0.00     0.13  -0.13   0.11
  44   1    -0.15   0.12  -0.39    -0.00   0.00  -0.00    -0.16   0.12  -0.41
  45   1    -0.34   0.38  -0.01    -0.00   0.00  -0.00    -0.33   0.37  -0.01
  46   6    -0.00   0.00   0.00     0.00  -0.00   0.00     0.00  -0.00  -0.00
  47   8     0.00  -0.00   0.00    -0.00   0.00  -0.00    -0.00   0.00   0.00
  48   7    -0.00  -0.00   0.00    -0.00  -0.00   0.00     0.00   0.00  -0.00
  49   1    -0.00   0.00   0.00     0.00  -0.00  -0.00     0.00  -0.00  -0.00
  50   1     0.00   0.00  -0.00     0.00   0.00  -0.00    -0.00  -0.00   0.00
  51   7     0.00  -0.00   0.00     0.00  -0.00   0.00    -0.00   0.00  -0.00
  52   1     0.00  -0.00  -0.01     0.00  -0.00  -0.00    -0.00   0.00   0.00
  53   1    -0.00   0.00  -0.00    -0.00   0.00  -0.00     0.00  -0.00   0.00
