 Entering Gaussian System
 *********************************************
 Gaussian 98:
 frequency output generated by the xtb code
 *********************************************
                         Standard orientation:
 --------------------------------------------------------------------
  Center     Atomic     Atomic              Coordinates (Angstroms)
  Number     Number      Type              X           Y           Z
 --------------------------------------------------------------------
    1          8             0       -1.351024    0.361759   -1.006291
    2          6             0        0.057569    0.304160   -1.021763
    3          1             0        0.330960   -0.506497   -1.699907
    4          1             0        0.468442    1.237974   -1.426915
    5          6             0        0.718267    0.101668    0.343687
    6          1             0        0.482993    0.936367    1.007369
    7          1             0        1.793573    0.058694    0.161098
    8          7             0        0.352798   -1.140067    1.081172
    9          6             0       -1.012989   -1.029631    1.614766
   10          1             0       -1.062877   -0.166071    2.277498
   11          1             0       -1.265649   -1.928429    2.173729
   12          1             0       -1.715166   -0.904781    0.793701
   13          6             0        1.298388   -1.267210    2.203411
   14          1             0        1.226162   -0.380183    2.831375
   15          1             0        2.307387   -1.366900    1.807954
   16          1             0        1.054915   -2.146514    2.796121
   17          6             0        0.473750   -2.331061    0.228718
   18          1             0        0.299538   -3.225747    0.822169
   19          1             0        1.482666   -2.355520   -0.184196
   20          1             0       -0.239607   -2.301521   -0.589872
   21          1             0       -1.615408    1.137694   -0.463137
   22          6             0        3.808180   -1.649821   -1.587017
   23          8             0        3.273129   -1.411976   -0.510505
   24          7             0        5.159506   -1.638752   -1.722979
   25          1             0        5.713235   -1.347091   -0.938022
   26          1             0        5.609945   -1.733260   -2.614286
   27          7             0        3.108684   -1.935655   -2.706017
   28          1             0        3.580361   -2.209873   -3.548246
   29          1             0        2.105083   -2.060134   -2.670722
   30          6             0        0.231296    2.666391    3.386363
   31          8             0        0.125638    1.462366    3.197758
   32          7             0        1.052650    3.176094    4.337762
   33          1             0        1.490677    2.537725    4.977983
   34          1             0        1.047098    4.150968    4.576813
   35          7             0       -0.484123    3.571620    2.667597
   36          1             0       -0.204634    4.537380    2.665726
   37          1             0       -0.937532    3.217852    1.825603
   38          6             0       -0.779090   -2.173269   -3.661591
   39          8             0        0.190815   -2.254475   -2.918459
   40          7             0       -1.867235   -1.426800   -3.351991
   41          1             0       -1.800882   -0.781040   -2.576461
   42          1             0       -2.571118   -1.245783   -4.044953
   43          7             0       -0.832917   -2.837265   -4.844158
   44          1             0       -1.681308   -2.894454   -5.377863
   45          1             0       -0.116425   -3.515582   -5.034196
   46          6             0       -3.271125    2.316426    1.104288
   47          8             0       -2.118989    2.359633    0.673396
   48          7             0       -4.248141    1.652765    0.444647
   49          1             0       -4.046893    1.305164   -0.477074
   50          1             0       -5.211000    1.725138    0.719537
   51          7             0       -3.619863    2.909051    2.263362
   52          1             0       -4.538489    2.811586    2.655435
   53          1             0       -2.889432    3.301044    2.834784
 --------------------------------------------------------------------
     1 basis functions        1 primitive gaussians
     1 alpha electrons        1 beta electrons

 Harmonic frequencies (cm**-1), IR intensities (km*mol⁻¹),
 Raman scattering activities (A**4/amu), Raman depolarization ratios,
 reduced masses (AMU), force constants (mDyne/A) and normal coordinates:
                      1                      2                      3
                        a                      a                      a 
 Frequencies --    12.5448                19.4571                19.7819
 Red. masses --    12.0324                12.0509                12.2578
 Frc consts  --     0.0000                 0.0000                 0.0000
 IR Inten    --     2.0896                 2.2177                 1.4578
 Raman Activ --     0.0000                 0.0000                 0.0000
 Depolar     --     0.0000                 0.0000                 0.0000
 Atom AN      X      Y      Z        X      Y      Z        X      Y      Z
   1   8    -0.02   0.06  -0.07     0.07   0.03   0.08    -0.17  -0.14   0.08
   2   6    -0.01   0.04  -0.04     0.06   0.05   0.03    -0.14  -0.02   0.02
   3   1    -0.00   0.01  -0.01     0.01   0.01   0.00    -0.03   0.01  -0.01
   4   1    -0.00   0.01  -0.01     0.01   0.02   0.00    -0.07   0.01   0.01
   5   6    -0.04   0.04  -0.03     0.10   0.05   0.00    -0.07  -0.02  -0.01
   6   1    -0.01   0.01  -0.01     0.04   0.02   0.00    -0.02  -0.01   0.00
   7   1    -0.01   0.00  -0.00     0.03   0.01  -0.01    -0.02   0.00  -0.02
   8   7    -0.08   0.06  -0.02     0.12   0.06   0.03    -0.02  -0.04  -0.01
   9   6    -0.08   0.10  -0.02     0.14   0.09   0.09     0.03  -0.04   0.11
  10   1    -0.02   0.03  -0.01     0.06   0.03   0.02     0.03  -0.02   0.04
  11   1    -0.03   0.03  -0.00     0.05   0.03   0.03     0.02  -0.02   0.03
  12   1    -0.02   0.03  -0.01     0.03   0.02   0.04    -0.01  -0.01   0.05
  13   6    -0.09   0.04  -0.01     0.17   0.04  -0.02     0.08  -0.07  -0.10
  14   1    -0.02   0.01  -0.01     0.06   0.01  -0.01     0.04  -0.02  -0.02
  15   1    -0.03   0.00  -0.00     0.04   0.01  -0.02     0.01  -0.02  -0.06
  16   1    -0.03   0.02  -0.00     0.05   0.02  -0.00     0.04  -0.02  -0.03
  17   6    -0.11   0.04  -0.01     0.05   0.05   0.02    -0.10  -0.01  -0.05
  18   1    -0.04   0.02  -0.00     0.01   0.02   0.01    -0.02  -0.01  -0.02
  19   1    -0.03   0.00   0.00     0.01   0.01  -0.01    -0.04  -0.00  -0.04
  20   1    -0.03   0.02  -0.00     0.00   0.02   0.02    -0.05   0.01   0.00
  21   1    -0.01   0.01  -0.02     0.01   0.00   0.02    -0.05  -0.04   0.02
  22   6    -0.03  -0.10   0.10     0.02  -0.20  -0.08     0.03   0.00   0.09
  23   8    -0.07  -0.07   0.08     0.05  -0.09  -0.11    -0.05  -0.02   0.07
  24   7    -0.02  -0.18   0.16     0.02  -0.37  -0.08     0.05  -0.05   0.22
  25   1    -0.01  -0.05   0.05     0.01  -0.09  -0.03    -0.00  -0.02   0.07
  26   1     0.00  -0.06   0.05     0.00  -0.12  -0.02     0.03  -0.00   0.07
  27   7     0.01  -0.10   0.08    -0.01  -0.23  -0.06     0.11   0.09   0.03
  28   1     0.01  -0.04   0.03    -0.01  -0.09  -0.01     0.05   0.03   0.02
  29   1    -0.00  -0.01   0.01    -0.01  -0.03  -0.01     0.03   0.03  -0.01
  30   6     0.03   0.12  -0.12    -0.02   0.08   0.07     0.14  -0.02  -0.09
  31   8    -0.02   0.13  -0.08     0.22   0.08   0.00     0.20  -0.04  -0.01
  32   7     0.08   0.13  -0.17    -0.05   0.18   0.06     0.26   0.08  -0.24
  33   1     0.02   0.04  -0.04     0.03   0.06  -0.00     0.10   0.04  -0.07
  34   1     0.03   0.04  -0.06    -0.06   0.04   0.03     0.06   0.02  -0.08
  35   7     0.04   0.12  -0.14    -0.25  -0.01   0.19     0.02  -0.10  -0.06
  36   1     0.02   0.03  -0.05    -0.11   0.01   0.06    -0.01  -0.02  -0.04
  37   1     0.00   0.03  -0.03    -0.06  -0.01   0.05    -0.02  -0.04   0.00
  38   6     0.05   0.10  -0.09    -0.02   0.10   0.01     0.08   0.02  -0.07
  39   8     0.01   0.05  -0.04    -0.03   0.05   0.02     0.14   0.12  -0.12
  40   7     0.06   0.13  -0.15     0.00   0.14   0.02    -0.00  -0.15   0.01
  41   1     0.01   0.03  -0.04     0.00   0.03   0.02    -0.02  -0.05   0.01
  42   1     0.03   0.05  -0.05     0.00   0.05   0.01    -0.02  -0.06   0.01
  43   7     0.12   0.14  -0.12    -0.03   0.17  -0.03     0.14   0.08  -0.11
  44   1     0.04   0.05  -0.05    -0.01   0.06  -0.01     0.03  -0.00  -0.02
  45   1     0.03   0.03  -0.02    -0.01   0.04  -0.01     0.06   0.05  -0.05
  46   6     0.03  -0.19   0.16    -0.14  -0.07  -0.05    -0.17   0.07   0.06
  47   8    -0.03  -0.02   0.01    -0.11  -0.05   0.09    -0.18  -0.13   0.09
  48   7     0.06  -0.39   0.32    -0.06  -0.06  -0.20    -0.30   0.31   0.01
  49   1    -0.00  -0.10   0.08     0.02  -0.01  -0.05    -0.09   0.09  -0.00
  50   1     0.02  -0.14   0.12    -0.03  -0.03  -0.08    -0.08   0.12   0.00
  51   7     0.10  -0.24   0.21    -0.30  -0.11  -0.08    -0.08   0.07   0.10
  52   1     0.05  -0.10   0.09    -0.09  -0.03  -0.05    -0.03   0.06   0.02
  53   1     0.03  -0.03   0.03    -0.10  -0.03   0.00    -0.01  -0.02   0.03
                      4                      5                      6
                        a                      a                      a 
 Frequencies --    26.7500                32.8474                35.0641
 Red. masses --    11.8296                11.9538                11.7283
 Frc consts  --     0.0000                 0.0000                 0.0000
 IR Inten    --     3.1790                 1.6787                 1.6776
 Raman Activ --     0.0000                 0.0000                 0.0000
 Depolar     --     0.0000                 0.0000                 0.0000
 Atom AN      X      Y      Z        X      Y      Z        X      Y      Z
   1   8     0.03   0.17  -0.15     0.12   0.12   0.01     0.10   0.01  -0.05
   2   6     0.03   0.14  -0.12     0.10   0.02   0.04     0.08  -0.03   0.02
   3   1     0.01   0.05  -0.04     0.02   0.01   0.01     0.02  -0.02   0.01
   4   1     0.01   0.04  -0.03     0.05   0.00   0.02     0.04  -0.01   0.00
   5   6     0.01   0.10  -0.12     0.06  -0.06   0.05     0.03  -0.02   0.05
   6   1     0.01   0.03  -0.03     0.03  -0.02   0.02     0.01  -0.00   0.01
   7   1     0.00   0.02  -0.03     0.02  -0.04   0.02     0.01  -0.02   0.02
   8   7    -0.03   0.11  -0.15    -0.05  -0.05   0.02    -0.03  -0.00   0.06
   9   6    -0.02   0.14  -0.12    -0.05   0.03  -0.01    -0.04   0.05   0.01
  10   1     0.01   0.03  -0.03    -0.00   0.01  -0.00    -0.01   0.02  -0.00
  11   1    -0.01   0.04  -0.04    -0.03   0.01  -0.01    -0.03   0.02   0.00
  12   1    -0.01   0.05  -0.03    -0.01   0.02  -0.01    -0.00   0.02  -0.00
  13   6    -0.02   0.04  -0.15    -0.08  -0.14   0.03    -0.07  -0.01   0.09
  14   1     0.01   0.01  -0.04    -0.01  -0.04   0.01    -0.02   0.00   0.02
  15   1    -0.01   0.00  -0.05    -0.02  -0.06   0.02    -0.02  -0.01   0.03
  16   1    -0.01   0.01  -0.05    -0.04  -0.04   0.00    -0.03   0.00   0.03
  17   6    -0.08   0.11  -0.17    -0.10  -0.04  -0.01    -0.03  -0.02   0.08
  18   1    -0.03   0.03  -0.05    -0.05  -0.01  -0.01    -0.02  -0.00   0.03
  19   1    -0.02   0.02  -0.05    -0.03  -0.03   0.01    -0.01  -0.01   0.03
  20   1    -0.02   0.05  -0.05    -0.02   0.01  -0.01    -0.00  -0.01   0.02
  21   1     0.01   0.04  -0.03     0.04   0.03   0.01     0.02   0.00  -0.02
  22   6     0.07  -0.03   0.07    -0.02   0.08   0.10    -0.07   0.03  -0.01
  23   8     0.01  -0.02   0.04    -0.02  -0.18   0.17    -0.04  -0.04   0.02
  24   7     0.09  -0.15   0.18    -0.02   0.18   0.09    -0.09   0.25  -0.11
  25   1     0.01  -0.05   0.06    -0.01   0.00   0.04    -0.02   0.07  -0.03
  26   1     0.04  -0.04   0.06    -0.01   0.09   0.02    -0.03   0.05  -0.03
  27   7     0.14   0.05   0.01    -0.02   0.31   0.04    -0.11  -0.09   0.04
  28   1     0.05   0.01   0.01    -0.00   0.12  -0.00    -0.03   0.00  -0.00
  29   1     0.04   0.03  -0.02    -0.00   0.05   0.01    -0.03  -0.05   0.02
  30   6    -0.02  -0.01   0.07     0.14  -0.02  -0.07     0.04   0.04  -0.02
  31   8     0.04  -0.00  -0.01     0.14  -0.02  -0.06     0.05   0.03   0.03
  32   7    -0.07  -0.03   0.13     0.31  -0.02  -0.21     0.08   0.09  -0.09
  33   1    -0.01  -0.01   0.02     0.11  -0.01  -0.07     0.04   0.03  -0.03
  34   1    -0.03  -0.01   0.05     0.08  -0.01  -0.05     0.02   0.03  -0.04
  35   7    -0.06   0.00   0.12     0.02  -0.02   0.05    -0.02  -0.00  -0.01
  36   1    -0.03   0.00   0.05     0.00  -0.01   0.01    -0.02   0.00  -0.01
  37   1    -0.00   0.01   0.02    -0.02  -0.00   0.03    -0.01  -0.01   0.00
  38   6    -0.05  -0.09   0.03    -0.08   0.05   0.05     0.02  -0.01   0.01
  39   8     0.11   0.16  -0.16    -0.03   0.08  -0.02    -0.08  -0.15   0.13
  40   7    -0.10  -0.21   0.15    -0.05   0.09   0.10     0.09   0.13  -0.11
  41   1    -0.01  -0.02   0.01     0.01   0.04   0.02     0.02   0.03  -0.02
  42   1    -0.07  -0.10   0.07    -0.02   0.02   0.04     0.05   0.06  -0.05
  43   7    -0.22  -0.29   0.16    -0.20  -0.02   0.10     0.06  -0.01   0.01
  44   1    -0.08  -0.12   0.09    -0.07  -0.01   0.04     0.03   0.02  -0.02
  45   1    -0.04  -0.05   0.02    -0.06  -0.01   0.02    -0.00  -0.03   0.03
  46   6     0.03  -0.03   0.04    -0.04  -0.08  -0.10     0.01  -0.06  -0.02
  47   8     0.03   0.04   0.02     0.01   0.03   0.03     0.01  -0.03  -0.03
  48   7     0.01   0.10  -0.06     0.13  -0.26  -0.19    -0.08   0.34  -0.29
  49   1    -0.00   0.08  -0.04     0.08  -0.08  -0.04    -0.04   0.18  -0.11
  50   1     0.01   0.02  -0.01     0.02  -0.10  -0.08    -0.02   0.09  -0.06
  51   7     0.08  -0.27   0.18    -0.26  -0.05  -0.20     0.11  -0.51   0.23
  52   1     0.02  -0.09   0.05    -0.08  -0.04  -0.08     0.02  -0.13   0.05
  53   1     0.02  -0.10   0.06    -0.10   0.02  -0.03     0.04  -0.20   0.09
                      7                      8                      9
                        a                      a                      a 
 Frequencies --    40.5725                41.9544                47.3679
 Red. masses --    12.2889                12.8548                12.7006
 Frc consts  --     0.0000                 0.0000                 0.0000
 IR Inten    --     2.1543                 2.8276                 3.3735
 Raman Activ --     0.0000                 0.0000                 0.0000
 Depolar     --     0.0000                 0.0000                 0.0000
 Atom AN      X      Y      Z        X      Y      Z        X      Y      Z
   1   8    -0.08  -0.06  -0.05     0.03  -0.09   0.05     0.03  -0.12   0.07
   2   6    -0.07  -0.06  -0.07     0.03  -0.07   0.05     0.02  -0.08   0.02
   3   1    -0.02  -0.03  -0.01     0.01  -0.02   0.02     0.01  -0.02  -0.00
   4   1    -0.02  -0.02  -0.04     0.01  -0.02   0.01    -0.00  -0.02   0.01
   5   6    -0.04  -0.00  -0.07     0.03  -0.06   0.05     0.06  -0.09   0.00
   6   1     0.00   0.01  -0.03     0.01  -0.02   0.01     0.03  -0.03   0.00
   7   1    -0.01  -0.01  -0.03     0.01  -0.02   0.01     0.02  -0.03  -0.01
   8   7    -0.07   0.05  -0.00     0.02  -0.05   0.07     0.05  -0.09   0.01
   9   6     0.00   0.17   0.13     0.02  -0.04   0.05     0.07  -0.05   0.06
  10   1     0.04   0.05   0.04     0.00  -0.01   0.01     0.04  -0.01   0.02
  11   1    -0.00   0.06   0.05     0.00  -0.01   0.02     0.02  -0.01   0.02
  12   1    -0.02   0.06   0.06     0.01  -0.01   0.01     0.01  -0.01   0.03
  13   6     0.04   0.00  -0.10     0.01  -0.04   0.07     0.09  -0.12  -0.03
  14   1     0.05   0.01  -0.03     0.00  -0.01   0.02     0.04  -0.03  -0.01
  15   1    -0.00  -0.03  -0.06     0.00  -0.02   0.02     0.02  -0.05  -0.02
  16   1     0.01   0.01  -0.01    -0.00  -0.01   0.03     0.02  -0.03  -0.00
  17   6    -0.25   0.01   0.02     0.02  -0.06   0.08    -0.03  -0.09  -0.01
  18   1    -0.07   0.01   0.02     0.00  -0.02   0.03    -0.02  -0.02  -0.00
  19   1    -0.09  -0.02  -0.03     0.01  -0.02   0.02    -0.01  -0.04  -0.01
  20   1    -0.10   0.01   0.03     0.01  -0.02   0.02    -0.01  -0.01   0.00
  21   1    -0.01  -0.02  -0.01     0.01  -0.01  -0.00     0.01  -0.02  -0.00
  22   6    -0.12   0.02  -0.02    -0.02   0.02  -0.06     0.03  -0.04   0.09
  23   8    -0.21  -0.18  -0.01     0.02  -0.15  -0.01     0.02  -0.21   0.13
  24   7    -0.13   0.19   0.02    -0.01  -0.42  -0.01     0.02   0.31   0.05
  25   1    -0.05   0.03   0.02     0.00  -0.14   0.01     0.00   0.04   0.03
  26   1    -0.02   0.08   0.01    -0.02   0.04  -0.03     0.02   0.04   0.02
  27   7    -0.07   0.11  -0.08    -0.08   0.68  -0.20     0.07  -0.17   0.12
  28   1    -0.00   0.06  -0.02    -0.03   0.12  -0.04     0.02   0.05   0.00
  29   1    -0.02  -0.01  -0.03    -0.02   0.14  -0.04     0.02  -0.04   0.02
  30   6     0.08   0.07   0.15    -0.07   0.06  -0.04    -0.05   0.08  -0.06
  31   8     0.33   0.08   0.06    -0.02   0.07  -0.05     0.12   0.09  -0.17
  32   7    -0.08   0.14   0.26    -0.18   0.09   0.04    -0.28   0.12   0.10
  33   1     0.01   0.05   0.06    -0.05   0.03   0.02    -0.07   0.04   0.02
  34   1    -0.07   0.03   0.09    -0.05   0.03   0.00    -0.10   0.03   0.03
  35   7    -0.05   0.01   0.20    -0.03   0.05  -0.11    -0.07   0.05  -0.11
  36   1    -0.05   0.01   0.07    -0.02   0.02  -0.02    -0.04   0.02  -0.01
  37   1     0.02  -0.00   0.04     0.01   0.01  -0.04     0.02   0.01  -0.05
  38   6     0.08  -0.12  -0.10     0.01   0.00   0.02    -0.10   0.10  -0.02
  39   8     0.03  -0.14  -0.04    -0.00  -0.04   0.03    -0.01   0.11  -0.17
  40   7     0.08  -0.10  -0.21     0.01  -0.00   0.04    -0.18  -0.10   0.25
  41   1     0.00  -0.03  -0.05     0.00  -0.01   0.02    -0.03  -0.04   0.08
  42   1     0.03  -0.03  -0.07     0.00   0.01   0.01    -0.07  -0.02   0.09
  43   7     0.16  -0.14  -0.11     0.03   0.06  -0.01    -0.18   0.30  -0.13
  44   1     0.05  -0.04  -0.04     0.01   0.02  -0.00    -0.07   0.07  -0.00
  45   1     0.04  -0.04  -0.01     0.01   0.02  -0.01    -0.03   0.11  -0.09
  46   6     0.09  -0.02   0.00     0.04  -0.00  -0.02     0.07   0.00  -0.05
  47   8     0.13  -0.08   0.07     0.02   0.02  -0.11     0.04   0.05  -0.18
  48   7     0.13  -0.08   0.01    -0.01   0.07  -0.01     0.03   0.00   0.01
  49   1     0.05  -0.05   0.01    -0.02   0.04  -0.02    -0.01   0.01  -0.01
  50   1     0.03  -0.01  -0.02     0.00   0.02   0.02     0.01  -0.01   0.03
  51   7     0.03   0.10  -0.08     0.14  -0.10   0.06     0.18  -0.05   0.00
  52   1     0.00   0.04  -0.03     0.05  -0.03   0.03     0.06  -0.02   0.02
  53   1     0.00   0.04  -0.02     0.05  -0.04   0.01     0.06  -0.02  -0.02
                     10                     11                     12
                        a                      a                      a 
 Frequencies --    54.4842                61.9506                67.4215
 Red. masses --    12.3531                12.6386                12.8290
 Frc consts  --     0.0000                 0.0000                 0.0000
 IR Inten    --     1.3156                 1.1144                 2.8852
 Raman Activ --     0.0000                 0.0000                 0.0000
 Depolar     --     0.0000                 0.0000                 0.0000
 Atom AN      X      Y      Z        X      Y      Z        X      Y      Z
   1   8     0.16   0.09  -0.02     0.15   0.09   0.00    -0.10   0.16   0.06
   2   6     0.13   0.04   0.01     0.13   0.07   0.10    -0.09  -0.01  -0.04
   3   1     0.03   0.02  -0.01     0.05   0.03   0.03    -0.06  -0.01  -0.01
   4   1     0.05   0.01   0.02     0.05   0.03   0.05    -0.01  -0.02  -0.02
   5   6     0.11  -0.07   0.01     0.02  -0.00   0.14    -0.02  -0.06  -0.08
   6   1     0.05  -0.02   0.01     0.01  -0.00   0.05     0.02  -0.02  -0.02
   7   1     0.03  -0.04   0.00     0.01  -0.02   0.06    -0.01  -0.03  -0.04
   8   7     0.03  -0.08  -0.05    -0.11  -0.01   0.08    -0.02  -0.05  -0.07
   9   6     0.02  -0.03  -0.09    -0.12   0.07   0.02    -0.05  -0.07  -0.13
  10   1     0.01  -0.01  -0.03    -0.02   0.01   0.02    -0.03  -0.01  -0.05
  11   1    -0.01  -0.01  -0.03    -0.06   0.02  -0.01    -0.01  -0.01  -0.03
  12   1     0.01   0.00  -0.03    -0.02   0.05  -0.00    -0.00  -0.04  -0.05
  13   6    -0.02  -0.15  -0.02    -0.17  -0.13   0.11    -0.06   0.01  -0.02
  14   1     0.00  -0.05  -0.00    -0.03  -0.04   0.04    -0.03   0.01  -0.02
  15   1    -0.00  -0.06   0.00    -0.05  -0.06   0.05    -0.01   0.01   0.01
  16   1    -0.02  -0.04  -0.01    -0.08  -0.04   0.02    -0.02   0.01   0.00
  17   6     0.00  -0.05  -0.08    -0.16   0.04   0.01     0.06  -0.08  -0.01
  18   1    -0.03  -0.02  -0.03    -0.04   0.00  -0.01     0.01  -0.02   0.00
  19   1     0.01  -0.03  -0.01    -0.05   0.01  -0.02     0.03  -0.02   0.02
  20   1     0.02   0.01  -0.04    -0.06   0.03   0.01     0.04  -0.04  -0.02
  21   1     0.03   0.01   0.00     0.02   0.02  -0.00     0.01   0.05   0.02
  22   6     0.05  -0.06  -0.00    -0.03  -0.07  -0.23     0.04  -0.04  -0.00
  23   8     0.11  -0.27   0.07    -0.19  -0.16  -0.32     0.12  -0.14   0.05
  24   7     0.05   0.13  -0.09    -0.02   0.08  -0.11     0.03   0.01  -0.10
  25   1     0.02  -0.00  -0.02    -0.03   0.02  -0.01     0.02  -0.01  -0.03
  26   1     0.00   0.04  -0.03     0.02   0.02  -0.01    -0.01   0.02  -0.04
  27   7     0.02  -0.00   0.01     0.11  -0.14  -0.32    -0.03   0.02   0.02
  28   1    -0.00   0.05  -0.02     0.06  -0.01  -0.08    -0.02   0.02  -0.00
  29   1     0.01  -0.01   0.01     0.03  -0.04  -0.11    -0.01  -0.01   0.03
  30   6    -0.05   0.02  -0.07    -0.03   0.02  -0.00    -0.02   0.04  -0.05
  31   8     0.12   0.02  -0.17    -0.09   0.02   0.09     0.02   0.09  -0.38
  32   7    -0.16   0.07  -0.01     0.01   0.05  -0.04     0.09  -0.16  -0.05
  33   1    -0.02   0.02  -0.02    -0.01   0.02   0.00     0.06  -0.08  -0.07
  34   1    -0.07   0.01   0.01     0.01   0.02  -0.03     0.02  -0.06   0.06
  35   7    -0.16  -0.02  -0.02     0.01   0.01  -0.06    -0.19   0.19   0.28
  36   1    -0.07   0.00   0.01     0.01   0.00  -0.03    -0.06   0.05   0.13
  37   1    -0.03  -0.01  -0.01    -0.01  -0.00  -0.01    -0.05   0.09   0.06
  38   6     0.03  -0.00  -0.00     0.16   0.00   0.10     0.05  -0.09   0.05
  39   8     0.02  -0.01   0.02     0.27   0.12   0.01    -0.02  -0.15   0.17
  40   7     0.17   0.27  -0.19     0.07  -0.20   0.27    -0.05  -0.24   0.07
  41   1     0.06   0.09  -0.07     0.03  -0.04   0.06    -0.04  -0.07   0.03
  42   1     0.05   0.06  -0.05     0.00  -0.06   0.09     0.01  -0.05   0.00
  43   7    -0.09  -0.28   0.16     0.16   0.07   0.07     0.26   0.12  -0.07
  44   1    -0.02  -0.06   0.04     0.03  -0.01   0.04     0.09   0.03  -0.05
  45   1    -0.05  -0.11   0.08     0.07   0.05  -0.01     0.09   0.05  -0.02
  46   6    -0.12   0.08   0.12    -0.04   0.02   0.01    -0.00   0.11   0.07
  47   8    -0.18  -0.02   0.03    -0.05   0.04  -0.01    -0.01   0.30   0.09
  48   7    -0.23   0.08   0.27    -0.03  -0.03   0.05     0.08   0.04   0.03
  49   1    -0.09   0.00   0.07    -0.01  -0.00   0.01     0.03   0.04   0.00
  50   1    -0.05   0.05   0.09    -0.01  -0.01   0.02     0.02  -0.02   0.00
  51   7    -0.01   0.22   0.10    -0.03   0.03   0.01    -0.09   0.00   0.11
  52   1     0.01   0.07   0.05    -0.01   0.00   0.01    -0.02  -0.04   0.03
  53   1     0.02   0.05   0.01    -0.01   0.02  -0.00    -0.04   0.01   0.04
                     13                     14                     15
                        a                      a                      a 
 Frequencies --    73.8712                80.2308                82.7407
 Red. masses --    12.9427                12.2877                13.6573
 Frc consts  --     0.0000                 0.0000                 0.0000
 IR Inten    --    15.9048                 3.3411                 2.6229
 Raman Activ --     0.0000                 0.0000                 0.0000
 Depolar     --     0.0000                 0.0000                 0.0000
 Atom AN      X      Y      Z        X      Y      Z        X      Y      Z
   1   8     0.20   0.06  -0.25     0.05  -0.06  -0.05     0.08   0.05  -0.08
   2   6     0.17   0.04  -0.14     0.05  -0.12   0.03     0.07   0.08   0.01
   3   1     0.05   0.01  -0.03     0.01  -0.04   0.02     0.04   0.04  -0.01
   4   1     0.06   0.01  -0.04     0.03  -0.04   0.01     0.02   0.03   0.03
   5   6     0.09   0.05  -0.10    -0.05  -0.10   0.08    -0.00  -0.00   0.03
   6   1     0.03   0.02  -0.04    -0.03  -0.03   0.02    -0.01  -0.01   0.02
   7   1     0.03  -0.00  -0.01    -0.01  -0.02   0.04     0.00   0.00   0.02
   8   7    -0.00   0.10  -0.08    -0.09  -0.12   0.05    -0.05  -0.06  -0.08
   9   6    -0.05   0.15  -0.19    -0.16  -0.17  -0.14    -0.04  -0.05  -0.06
  10   1    -0.03   0.05  -0.07    -0.08  -0.04  -0.05    -0.00  -0.03   0.00
  11   1    -0.03   0.05  -0.04    -0.05  -0.05  -0.04    -0.02  -0.02  -0.04
  12   1     0.01   0.03  -0.07    -0.02  -0.07  -0.07    -0.01   0.02  -0.02
  13   6    -0.11   0.11   0.02    -0.24  -0.04   0.19    -0.04  -0.18  -0.09
  14   1    -0.05   0.03   0.00    -0.10  -0.01   0.04     0.01  -0.06  -0.01
  15   1    -0.02   0.03   0.03    -0.05  -0.00   0.10    -0.01  -0.06  -0.03
  16   1    -0.05   0.04   0.00    -0.08  -0.01   0.05    -0.02  -0.06  -0.04
  17   6     0.04   0.05  -0.00     0.12  -0.11   0.07    -0.09   0.01  -0.16
  18   1    -0.03   0.02   0.00     0.04  -0.04   0.02    -0.03  -0.01  -0.06
  19   1     0.03  -0.01   0.04     0.05  -0.00   0.05    -0.03   0.00  -0.05
  20   1     0.05   0.01  -0.03     0.06  -0.05  -0.00    -0.03   0.02  -0.04
  21   1     0.03  -0.01  -0.03     0.02  -0.03   0.01     0.00   0.01  -0.03
  22   6     0.02  -0.02   0.05     0.05   0.08  -0.03    -0.09   0.13   0.03
  23   8     0.14  -0.14   0.15    -0.02   0.28  -0.12    -0.12   0.47  -0.05
  24   7    -0.00   0.02  -0.10     0.07  -0.07   0.08    -0.08  -0.13   0.11
  25   1     0.02  -0.02  -0.03     0.00   0.03   0.02    -0.03   0.05   0.00
  26   1    -0.03   0.02  -0.04     0.03  -0.02   0.03    -0.02  -0.02   0.03
  27   7    -0.10   0.10   0.09     0.12  -0.03  -0.05    -0.08   0.01   0.06
  28   1    -0.05   0.03   0.01     0.05  -0.06   0.01    -0.02  -0.10   0.05
  29   1    -0.02  -0.01   0.05     0.03   0.01  -0.03    -0.02   0.00   0.02
  30   6     0.01  -0.02   0.06     0.02   0.15   0.03     0.10  -0.06  -0.06
  31   8    -0.01  -0.04   0.20     0.14   0.18  -0.05     0.39  -0.07  -0.19
  32   7     0.01   0.07   0.01     0.06   0.19  -0.01    -0.11   0.02   0.06
  33   1    -0.00   0.04   0.02     0.05   0.05  -0.03     0.01   0.02  -0.00
  34   1    -0.00   0.03  -0.02    -0.01   0.05   0.02    -0.07   0.00   0.03
  35   7     0.03  -0.09  -0.05    -0.16   0.15   0.18    -0.04  -0.15  -0.03
  36   1     0.01  -0.03  -0.04    -0.06   0.04   0.05    -0.06  -0.03   0.01
  37   1     0.00  -0.05   0.00    -0.02   0.03   0.04     0.02  -0.04  -0.02
  38   6    -0.05  -0.06   0.03    -0.04  -0.02  -0.13     0.02  -0.01   0.16
  39   8    -0.10  -0.21   0.07     0.03  -0.02  -0.25    -0.04  -0.17   0.26
  40   7    -0.12  -0.21   0.16    -0.02  -0.01  -0.04     0.05   0.02   0.17
  41   1    -0.03  -0.07   0.05     0.02   0.00  -0.02     0.01  -0.00   0.05
  42   1    -0.01  -0.01   0.03    -0.02  -0.00   0.00     0.04   0.04   0.03
  43   7     0.05   0.24  -0.15    -0.19  -0.04  -0.12     0.08   0.12   0.10
  44   1     0.02   0.08  -0.05    -0.06  -0.01  -0.01     0.03   0.06   0.01
  45   1     0.02   0.07  -0.06    -0.06  -0.01  -0.05     0.01   0.02   0.03
  46   6    -0.05  -0.07   0.06     0.07  -0.03   0.06    -0.00  -0.00  -0.05
  47   8    -0.02  -0.36   0.15     0.13  -0.22   0.19    -0.04   0.02  -0.15
  48   7    -0.14   0.04   0.08     0.05   0.07  -0.00    -0.04  -0.06   0.05
  49   1    -0.04  -0.02   0.03     0.03   0.00   0.01    -0.03  -0.01   0.01
  50   1    -0.04   0.07   0.00     0.01   0.05  -0.03    -0.00  -0.01   0.03
  51   7    -0.01   0.13  -0.03     0.04   0.07   0.00     0.08   0.01  -0.04
  52   1    -0.01   0.09  -0.02    -0.00   0.05  -0.02     0.03   0.00   0.01
  53   1     0.01   0.01  -0.01     0.01  -0.00   0.02     0.03   0.01  -0.03
                     16                     17                     18
                        a                      a                      a 
 Frequencies --    98.1701               103.2808               104.9855
 Red. masses --    12.7130                12.8986                13.5810
 Frc consts  --     0.0000                 0.0000                 0.0000
 IR Inten    --    12.9737                 7.9859                 4.2976
 Raman Activ --     0.0000                 0.0000                 0.0000
 Depolar     --     0.0000                 0.0000                 0.0000
 Atom AN      X      Y      Z        X      Y      Z        X      Y      Z
   1   8     0.19   0.02  -0.02     0.06   0.06   0.04    -0.04  -0.17  -0.07
   2   6     0.16  -0.04  -0.01     0.05  -0.02  -0.00    -0.03   0.00  -0.06
   3   1     0.04  -0.03   0.01     0.00  -0.02   0.01     0.02   0.01  -0.02
   4   1     0.06  -0.03  -0.02     0.03  -0.02  -0.01    -0.04   0.02  -0.01
   5   6     0.13   0.01   0.01     0.06  -0.01  -0.01    -0.04   0.03  -0.05
   6   1     0.04   0.01  -0.01     0.03   0.00  -0.01    -0.03   0.00  -0.02
   7   1     0.04  -0.00   0.01     0.02  -0.01  -0.01    -0.01   0.02  -0.01
   8   7     0.10   0.06   0.06     0.04   0.03   0.03     0.00   0.01  -0.07
   9   6     0.12   0.15   0.13     0.05   0.09   0.06     0.04  -0.01   0.04
  10   1     0.06   0.05   0.04     0.02   0.04  -0.00     0.02   0.01   0.00
  11   1     0.03   0.05   0.04     0.02   0.04   0.04     0.03   0.00   0.03
  12   1     0.03   0.06   0.05     0.01   0.01   0.02    -0.01  -0.02   0.03
  13   6     0.15   0.02   0.01     0.06   0.02  -0.00     0.09  -0.01  -0.14
  14   1     0.06   0.01   0.00     0.03   0.01  -0.01     0.04  -0.01  -0.04
  15   1     0.03  -0.01  -0.01     0.01  -0.01  -0.01     0.02  -0.00  -0.07
  16   1     0.04   0.01   0.01     0.01   0.01   0.01     0.04  -0.01  -0.04
  17   6    -0.05   0.03   0.08    -0.04  -0.01   0.05    -0.08   0.02  -0.09
  18   1    -0.01   0.01   0.03    -0.01   0.01   0.03    -0.02   0.01  -0.03
  19   1    -0.03  -0.01  -0.01    -0.02  -0.01  -0.00    -0.03   0.00  -0.05
  20   1    -0.04   0.01   0.04    -0.03  -0.00   0.03    -0.04   0.02  -0.01
  21   1     0.05   0.02  -0.02     0.03   0.00   0.03    -0.02  -0.07   0.01
  22   6    -0.07   0.05   0.02    -0.02   0.03  -0.00    -0.04  -0.02  -0.01
  23   8    -0.18   0.13  -0.03    -0.13   0.06  -0.06    -0.09  -0.07  -0.02
  24   7    -0.06  -0.00   0.16    -0.01   0.01   0.13    -0.04   0.03   0.04
  25   1    -0.04   0.03   0.05    -0.03   0.03   0.04    -0.02  -0.00   0.02
  26   1     0.00   0.01   0.05     0.02   0.02   0.04    -0.00   0.01   0.02
  27   7     0.01   0.03  -0.03     0.07   0.01  -0.06    -0.01  -0.01  -0.03
  28   1     0.02  -0.03   0.02     0.04  -0.03   0.01     0.00   0.01  -0.01
  29   1     0.00  -0.01  -0.02     0.02  -0.02  -0.03    -0.00  -0.00  -0.01
  30   6    -0.14  -0.09  -0.01     0.06   0.03  -0.11    -0.13   0.02  -0.08
  31   8    -0.22  -0.10   0.02    -0.05   0.08  -0.33    -0.24   0.05  -0.20
  32   7     0.12  -0.11  -0.23    -0.14  -0.23   0.20     0.03  -0.11  -0.16
  33   1     0.05  -0.04  -0.08    -0.09  -0.10   0.05     0.01  -0.05  -0.07
  34   1     0.04  -0.03  -0.05    -0.00  -0.07   0.08     0.02  -0.04  -0.01
  35   7    -0.33  -0.08   0.17     0.39   0.21  -0.19    -0.21   0.12   0.10
  36   1    -0.07  -0.02   0.04     0.11   0.05  -0.01    -0.03   0.03   0.03
  37   1    -0.08  -0.01   0.03     0.06   0.08  -0.03    -0.04   0.04   0.01
  38   6    -0.01  -0.10  -0.10     0.01  -0.06  -0.02     0.04   0.11   0.17
  39   8     0.02  -0.31  -0.18     0.03  -0.26  -0.07     0.04   0.11   0.20
  40   7     0.08  -0.03   0.03     0.11   0.04   0.06     0.08   0.18   0.14
  41   1     0.05  -0.02   0.02     0.05  -0.00   0.02     0.02   0.05   0.04
  42   1     0.02   0.03   0.02     0.03   0.05   0.02     0.02   0.04   0.04
  43   7    -0.16   0.03  -0.18    -0.12   0.04  -0.08     0.03   0.07   0.21
  44   1    -0.06   0.04  -0.03    -0.04   0.05  -0.01     0.01   0.02   0.05
  45   1    -0.07  -0.01  -0.08    -0.06  -0.01  -0.04     0.00   0.01   0.07
  46   6     0.02   0.08   0.01    -0.11  -0.04   0.08     0.14  -0.11   0.03
  47   8    -0.03   0.15  -0.12    -0.06  -0.11   0.27     0.23  -0.44   0.19
  48   7    -0.01   0.02   0.12    -0.07   0.05  -0.06     0.08   0.08  -0.05
  49   1    -0.02   0.01   0.02     0.01   0.01  -0.01     0.03  -0.02   0.00
  50   1     0.00  -0.00   0.06    -0.03   0.02  -0.05     0.02   0.08  -0.04
  51   7     0.10   0.08   0.04    -0.24  -0.04   0.06     0.15   0.07  -0.07
  52   1     0.04  -0.01   0.04    -0.08   0.00  -0.02     0.02   0.08  -0.04
  53   1     0.04   0.02   0.00    -0.08  -0.02   0.04     0.05  -0.02   0.00
                     19                     20                     21
                        a                      a                      a 
 Frequencies --   113.0191               117.4145               135.6791
 Red. masses --    11.9838                12.3751                11.8261
 Frc consts  --     0.0000                 0.0000                 0.0000
 IR Inten    --    10.8936                12.5974                46.0472
 Raman Activ --     0.0000                 0.0000                 0.0000
 Depolar     --     0.0000                 0.0000                 0.0000
 Atom AN      X      Y      Z        X      Y      Z        X      Y      Z
   1   8    -0.19  -0.03  -0.05    -0.06   0.09   0.09    -0.11  -0.13   0.10
   2   6    -0.17  -0.13  -0.12    -0.05   0.08   0.02    -0.09   0.19   0.15
   3   1    -0.07  -0.07  -0.01    -0.02   0.04  -0.02     0.04   0.09   0.02
   4   1    -0.04  -0.06  -0.08    -0.02   0.04   0.03    -0.08   0.09   0.08
   5   6    -0.10  -0.02  -0.15    -0.02  -0.05  -0.01    -0.15   0.19   0.18
   6   1    -0.01   0.01  -0.06    -0.00  -0.03   0.02    -0.07   0.04   0.06
   7   1    -0.03  -0.02  -0.06    -0.01  -0.00  -0.01    -0.04   0.08   0.07
   8   7    -0.08   0.05  -0.02     0.01  -0.14  -0.15    -0.14   0.13   0.08
   9   6    -0.09   0.06  -0.06     0.05  -0.17  -0.04    -0.12   0.03   0.13
  10   1    -0.03   0.03  -0.03     0.03  -0.07   0.02    -0.03  -0.01   0.06
  11   1    -0.02   0.03   0.00     0.02  -0.07  -0.04    -0.02  -0.01   0.02
  12   1    -0.02  -0.00  -0.02    -0.00  -0.02   0.01    -0.04   0.02   0.05
  13   6    -0.09   0.20   0.01     0.08  -0.26  -0.22    -0.10  -0.01   0.04
  14   1    -0.04   0.07  -0.02     0.03  -0.10  -0.03    -0.02  -0.02   0.03
  15   1    -0.02   0.06   0.01     0.02  -0.06  -0.08    -0.03  -0.01   0.00
  16   1    -0.02   0.07   0.03     0.03  -0.09  -0.09    -0.04  -0.02  -0.01
  17   6    -0.01  -0.04   0.12    -0.06  -0.04  -0.28    -0.12   0.24  -0.09
  18   1     0.02   0.01   0.06    -0.01  -0.03  -0.11    -0.02   0.04  -0.06
  19   1    -0.00  -0.01   0.03    -0.02  -0.01  -0.10    -0.04   0.09  -0.03
  20   1    -0.00  -0.05   0.03    -0.03   0.02  -0.07    -0.04   0.09  -0.02
  21   1    -0.03   0.01  -0.02    -0.01   0.02   0.03    -0.07  -0.04   0.01
  22   6     0.18  -0.03  -0.06     0.06  -0.00   0.01     0.11  -0.03   0.00
  23   8     0.02  -0.15  -0.14     0.04  -0.02  -0.00     0.31  -0.05   0.10
  24   7     0.21   0.07   0.13     0.06   0.01   0.04     0.10  -0.04  -0.26
  25   1     0.02   0.02   0.06     0.01   0.02   0.01     0.07  -0.00  -0.10
  26   1     0.09   0.06   0.05     0.02   0.02   0.01    -0.03   0.02  -0.10
  27   7     0.35   0.03  -0.19     0.08   0.03  -0.01    -0.05   0.01   0.09
  28   1     0.12  -0.01  -0.03     0.03  -0.02   0.01    -0.04  -0.01   0.01
  29   1     0.10  -0.03  -0.06     0.02  -0.02   0.00    -0.01  -0.02   0.06
  30   6     0.04  -0.06   0.04    -0.06   0.15   0.11     0.03  -0.02  -0.03
  31   8     0.13  -0.08   0.07    -0.24   0.15   0.36     0.06  -0.01  -0.13
  32   7     0.02   0.01   0.01     0.04   0.26  -0.01     0.02  -0.08   0.00
  33   1     0.02   0.01   0.01    -0.02   0.09   0.04     0.02  -0.03  -0.02
  34   1    -0.01   0.00  -0.00     0.02   0.08  -0.04     0.01  -0.03   0.02
  35   7    -0.03  -0.13   0.03     0.05   0.15  -0.03    -0.03   0.00   0.05
  36   1    -0.02  -0.03   0.00     0.05   0.03  -0.05    -0.01   0.00   0.03
  37   1     0.00  -0.04   0.00    -0.00   0.02   0.01     0.01   0.01   0.00
  38   6    -0.03   0.03   0.13    -0.01  -0.09   0.03     0.07  -0.08  -0.06
  39   8    -0.07  -0.24   0.16    -0.06  -0.34   0.07     0.14  -0.25  -0.17
  40   7     0.11   0.24   0.12     0.08   0.03   0.04     0.19   0.03   0.09
  41   1     0.03   0.04   0.05     0.03  -0.01   0.03     0.07  -0.01   0.04
  42   1     0.04   0.10   0.03     0.04   0.05   0.00     0.04   0.03   0.05
  43   7    -0.14   0.14   0.08    -0.06   0.05  -0.05    -0.16   0.00  -0.10
  44   1    -0.04   0.09   0.02    -0.01   0.06  -0.02    -0.06   0.04   0.00
  45   1    -0.08  -0.00   0.02    -0.04  -0.02  -0.02    -0.07  -0.02  -0.06
  46   6    -0.02   0.01  -0.04     0.01   0.03   0.03     0.03  -0.03  -0.05
  47   8    -0.05   0.06  -0.12     0.03   0.09   0.09     0.02  -0.07  -0.08
  48   7    -0.03  -0.02   0.03     0.07   0.01  -0.04    -0.01  -0.02  -0.01
  49   1    -0.02  -0.01   0.00     0.04   0.01  -0.01    -0.01  -0.01  -0.01
  50   1    -0.00  -0.02   0.03     0.01  -0.01  -0.02     0.00  -0.00   0.01
  51   7     0.04  -0.01  -0.01    -0.07  -0.02   0.03     0.08  -0.02  -0.05
  52   1     0.02  -0.01   0.01    -0.02  -0.02  -0.00     0.02   0.02  -0.01
  53   1     0.02   0.01  -0.02    -0.03   0.00   0.02     0.03  -0.00  -0.02
                     22                     23                     24
                        a                      a                      a 
 Frequencies --   138.3659               149.6294               158.9218
 Red. masses --    12.1949                10.9390                12.8199
 Frc consts  --     0.0000                 0.0000                 0.0000
 IR Inten    --     1.0795                13.4802                27.3575
 Raman Activ --     0.0000                 0.0000                 0.0000
 Depolar     --     0.0000                 0.0000                 0.0000
 Atom AN      X      Y      Z        X      Y      Z        X      Y      Z
   1   8     0.08  -0.02   0.04     0.05   0.05  -0.02    -0.10   0.27   0.14
   2   6     0.07   0.00   0.06     0.05   0.23   0.14    -0.10   0.05   0.03
   3   1     0.02   0.01   0.01     0.07   0.09   0.03    -0.07   0.00   0.01
   4   1     0.02   0.00   0.03    -0.01   0.09   0.07    -0.00  -0.00  -0.00
   5   6     0.05  -0.03   0.07    -0.09   0.23   0.21    -0.01  -0.00  -0.01
   6   1     0.04  -0.00   0.02    -0.10   0.03   0.08     0.02   0.00   0.00
   7   1     0.01  -0.03   0.02    -0.02   0.14   0.10    -0.01  -0.02  -0.03
   8   7    -0.07   0.01   0.09     0.08   0.08   0.04    -0.01   0.01   0.02
   9   6    -0.02   0.19   0.17     0.03  -0.23  -0.03    -0.01   0.02   0.00
  10   1     0.04   0.06   0.05    -0.04  -0.10   0.04    -0.00   0.01  -0.00
  11   1    -0.03   0.06   0.06     0.04  -0.11  -0.06    -0.00   0.01   0.00
  12   1    -0.02   0.08   0.06     0.02  -0.05  -0.02    -0.00   0.00  -0.00
  13   6    -0.02  -0.17   0.02     0.05   0.08   0.06    -0.01   0.05   0.02
  14   1     0.04  -0.05   0.02    -0.01   0.01   0.03    -0.01   0.02   0.00
  15   1    -0.01  -0.08  -0.01     0.02   0.05   0.02    -0.00   0.02   0.01
  16   1    -0.03  -0.05  -0.00     0.03   0.01  -0.00     0.00   0.02   0.01
  17   6    -0.26   0.04   0.01     0.27   0.19  -0.10     0.01  -0.01   0.05
  18   1    -0.10   0.01  -0.01     0.11   0.03  -0.06     0.01   0.00   0.02
  19   1    -0.08  -0.02  -0.01     0.08   0.11  -0.02     0.00  -0.00   0.02
  20   1    -0.09   0.05   0.01     0.08   0.05  -0.03     0.00  -0.01   0.01
  21   1     0.02  -0.01   0.01    -0.02  -0.01   0.00     0.02   0.06   0.07
  22   6     0.23   0.05  -0.04    -0.05  -0.08   0.00    -0.01  -0.00   0.00
  23   8     0.22   0.13  -0.09    -0.24  -0.27  -0.05     0.01   0.00   0.01
  24   7     0.26  -0.02  -0.01    -0.04   0.09   0.23    -0.01  -0.00  -0.02
  25   1     0.06   0.05  -0.02    -0.05  -0.02   0.11     0.00  -0.00  -0.01
  26   1     0.06   0.04  -0.01     0.04   0.03   0.09    -0.01  -0.00  -0.01
  27   7     0.26   0.01  -0.05     0.12   0.01  -0.13    -0.03  -0.00   0.02
  28   1     0.07  -0.04  -0.00     0.06   0.03  -0.03    -0.01  -0.00   0.00
  29   1     0.07   0.00  -0.00     0.03  -0.02  -0.06    -0.01  -0.00   0.01
  30   6    -0.05  -0.02  -0.05     0.02  -0.02  -0.04    -0.09  -0.12  -0.16
  31   8    -0.06  -0.02  -0.07     0.09  -0.02  -0.10     0.09  -0.19  -0.02
  32   7    -0.04  -0.05  -0.05    -0.01  -0.02  -0.01    -0.24   0.12  -0.19
  33   1    -0.01  -0.02  -0.02     0.01  -0.01  -0.01    -0.04   0.08  -0.02
  34   1    -0.01  -0.01  -0.01    -0.02  -0.01   0.01    -0.10   0.04  -0.10
  35   7    -0.04  -0.01  -0.04    -0.02  -0.03  -0.01    -0.15  -0.31  -0.31
  36   1    -0.01  -0.00  -0.01    -0.02  -0.01   0.01    -0.08  -0.07  -0.10
  37   1    -0.01  -0.00  -0.01     0.00  -0.01  -0.01    -0.05  -0.12  -0.06
  38   6    -0.18  -0.02  -0.02    -0.11  -0.07  -0.02     0.04  -0.02  -0.02
  39   8    -0.35   0.05   0.18    -0.23  -0.11   0.10     0.07  -0.05  -0.06
  40   7    -0.30  -0.09  -0.23    -0.15  -0.07  -0.13     0.05  -0.02   0.02
  41   1    -0.10  -0.01  -0.07    -0.04  -0.02  -0.03     0.02  -0.00   0.00
  42   1    -0.03  -0.01  -0.11    -0.01   0.01  -0.06     0.01  -0.00   0.01
  43   7     0.10  -0.02  -0.04     0.04  -0.01  -0.08    -0.02  -0.01  -0.03
  44   1     0.05  -0.03  -0.05     0.02  -0.01  -0.04    -0.01   0.01  -0.00
  45   1     0.04  -0.00   0.04     0.00  -0.02   0.01    -0.01  -0.00  -0.02
  46   6     0.03  -0.01   0.02     0.02  -0.02  -0.01     0.11   0.05   0.15
  47   8     0.05  -0.06   0.06     0.03  -0.05  -0.01     0.21   0.05   0.35
  48   7     0.03   0.02  -0.01     0.01   0.00  -0.01     0.28   0.08  -0.07
  49   1     0.02  -0.00   0.00     0.00  -0.01  -0.00     0.14  -0.01   0.01
  50   1     0.01   0.01  -0.01     0.00   0.00  -0.00     0.06  -0.02  -0.06
  51   7     0.01   0.01   0.00     0.04   0.00  -0.02    -0.06   0.03   0.10
  52   1    -0.00   0.01  -0.01     0.01   0.01  -0.01    -0.04   0.04  -0.03
  53   1     0.00  -0.00   0.01     0.01  -0.00  -0.01    -0.04   0.03   0.05
                     25                     26                     27
                        a                      a                      a 
 Frequencies --   187.0471               188.4791               238.8392
 Red. masses --     3.4508                 9.3629                12.4434
 Frc consts  --     0.0000                 0.0000                 0.0000
 IR Inten    --   122.9564                32.4207                 9.2940
 Raman Activ --     0.0000                 0.0000                 0.0000
 Depolar     --     0.0000                 0.0000                 0.0000
 Atom AN      X      Y      Z        X      Y      Z        X      Y      Z
   1   8    -0.02  -0.13   0.19     0.06   0.31  -0.47    -0.17   0.58   0.11
   2   6    -0.01   0.04   0.04     0.04  -0.15  -0.08    -0.18   0.23   0.11
   3   1     0.00   0.03  -0.01    -0.01  -0.11   0.04    -0.10   0.08  -0.01
   4   1    -0.04   0.03   0.02     0.11  -0.10  -0.06     0.00   0.06   0.07
   5   6     0.11  -0.01  -0.03    -0.27   0.01   0.09     0.03  -0.10  -0.01
   6   1     0.08   0.00  -0.00    -0.18  -0.01   0.00     0.10  -0.03   0.03
   7   1     0.03  -0.04  -0.04    -0.06   0.08   0.09    -0.01  -0.08  -0.08
   8   7     0.01   0.02  -0.03    -0.07  -0.07   0.11     0.05  -0.08   0.05
   9   6    -0.01   0.09  -0.09    -0.01  -0.20   0.26     0.05   0.03   0.04
  10   1    -0.01   0.05  -0.06     0.02  -0.13   0.17     0.03   0.02   0.00
  11   1    -0.01   0.05   0.01    -0.01  -0.12  -0.02    -0.01   0.02   0.02
  12   1     0.00  -0.01  -0.04    -0.02   0.05   0.10     0.02   0.02   0.00
  13   6    -0.07  -0.03   0.03     0.13   0.01  -0.05     0.07  -0.03   0.03
  14   1    -0.03  -0.02   0.02     0.08   0.02  -0.04     0.01  -0.01   0.02
  15   1    -0.01   0.00   0.03     0.02  -0.02  -0.07     0.02   0.02   0.00
  16   1    -0.03  -0.02  -0.01     0.06   0.02   0.02     0.04  -0.02   0.00
  17   6    -0.01   0.02  -0.03    -0.05  -0.04   0.07     0.01  -0.16   0.15
  18   1    -0.03   0.01  -0.02     0.11  -0.02   0.04    -0.08  -0.03   0.05
  19   1     0.00  -0.01   0.01    -0.05   0.06  -0.07     0.03  -0.10   0.10
  20   1     0.01   0.02  -0.02    -0.10  -0.06   0.09     0.06  -0.02  -0.01
  21   1    -0.01  -0.03   0.04     0.04   0.08  -0.10    -0.02   0.13   0.06
  22   6     0.01  -0.01  -0.01     0.05  -0.01  -0.00     0.00   0.01  -0.01
  23   8    -0.01   0.09  -0.04     0.10   0.02   0.02    -0.01   0.02  -0.02
  24   7    -0.05   0.24  -0.02     0.03   0.07  -0.10     0.00   0.00   0.01
  25   1     0.06  -0.44   0.12     0.05  -0.18   0.01    -0.00  -0.00   0.01
  26   1     0.10  -0.69   0.14     0.03  -0.27   0.02     0.01  -0.01   0.01
  27   7     0.01   0.03  -0.02     0.01   0.01   0.03     0.01  -0.01  -0.01
  28   1    -0.01   0.20  -0.08    -0.01   0.09  -0.03     0.00   0.00  -0.01
  29   1    -0.01   0.12  -0.04    -0.00   0.05  -0.00     0.00   0.01  -0.00
  30   6     0.00  -0.00  -0.00     0.00   0.01  -0.01     0.01   0.02   0.03
  31   8     0.00  -0.00  -0.01     0.01   0.01  -0.02    -0.02   0.03  -0.01
  32   7    -0.01  -0.01   0.00    -0.01   0.00   0.01     0.05  -0.04   0.02
  33   1     0.01  -0.00  -0.00     0.00   0.00  -0.00     0.00  -0.02  -0.00
  34   1     0.01  -0.00  -0.00     0.00   0.00  -0.00     0.02  -0.01   0.02
  35   7    -0.01  -0.00   0.00     0.01   0.02  -0.00    -0.01   0.05   0.06
  36   1     0.00  -0.00  -0.00    -0.00   0.00   0.00     0.02   0.01   0.00
  37   1     0.00  -0.00  -0.00    -0.00   0.01   0.00     0.03   0.01  -0.00
  38   6    -0.01  -0.03   0.01     0.01   0.01   0.02     0.01  -0.02  -0.03
  39   8    -0.03  -0.08   0.03     0.02   0.00   0.00     0.01  -0.03  -0.03
  40   7     0.02   0.00  -0.01    -0.00  -0.01   0.04    -0.00  -0.04  -0.01
  41   1     0.00  -0.01   0.01     0.01   0.02  -0.01     0.00   0.01  -0.02
  42   1     0.01   0.01  -0.00     0.01   0.01   0.00     0.01   0.00  -0.01
  43   7     0.01  -0.00  -0.01    -0.01   0.03   0.01     0.00  -0.02  -0.03
  44   1     0.00   0.00  -0.01    -0.01   0.01   0.01    -0.00  -0.01  -0.00
  45   1    -0.00  -0.01   0.00    -0.01   0.00   0.00    -0.00  -0.01  -0.01
  46   6     0.01  -0.00  -0.01    -0.01   0.01   0.02    -0.01  -0.15  -0.12
  47   8     0.01  -0.01  -0.01    -0.01   0.00   0.03    -0.01  -0.30  -0.16
  48   7     0.01  -0.00  -0.01    -0.01  -0.00   0.02    -0.16  -0.00  -0.04
  49   1     0.00  -0.00  -0.00    -0.00   0.01   0.00    -0.06  -0.09   0.02
  50   1     0.00  -0.00  -0.00    -0.01   0.02  -0.01    -0.03  -0.02   0.04
  51   7     0.01  -0.01  -0.01    -0.03   0.02   0.01     0.23  -0.04  -0.13
  52   1     0.00   0.00  -0.00    -0.01  -0.01   0.01     0.05   0.11  -0.03
  53   1     0.00  -0.00  -0.00    -0.01  -0.00   0.01     0.10   0.00  -0.09
                     28                     29                     30
                        a                      a                      a 
 Frequencies --   269.4837               282.5645               303.3648
 Red. masses --     4.3555                 3.4367                 3.0200
 Frc consts  --     0.0000                 0.0000                 0.0000
 IR Inten    --     2.8444                44.4329               167.4917
 Raman Activ --     0.0000                 0.0000                 0.0000
 Depolar     --     0.0000                 0.0000                 0.0000
 Atom AN      X      Y      Z        X      Y      Z        X      Y      Z
   1   8     0.05  -0.08  -0.27     0.06  -0.06  -0.03    -0.01  -0.00  -0.01
   2   6     0.05   0.22  -0.02     0.05  -0.04  -0.02    -0.01   0.05   0.01
   3   1     0.09   0.14  -0.07     0.02  -0.01   0.00     0.01   0.03  -0.01
   4   1    -0.02   0.12   0.10     0.01  -0.01  -0.01    -0.01   0.02   0.02
   5   6    -0.07  -0.04   0.00    -0.02   0.01   0.01    -0.00  -0.01   0.00
   6   1    -0.00  -0.02   0.02    -0.02   0.00  -0.01     0.01  -0.00   0.00
   7   1    -0.02  -0.02  -0.01    -0.00   0.01   0.02    -0.00  -0.01  -0.00
   8   7    -0.06  -0.06   0.02    -0.02   0.00  -0.01    -0.01  -0.00   0.01
   9   6    -0.00  -0.14   0.16    -0.02  -0.04   0.02    -0.01  -0.01  -0.00
  10   1    -0.07   0.12  -0.16    -0.03   0.03  -0.05    -0.01  -0.01   0.01
  11   1     0.14   0.08   0.29     0.03   0.02   0.07    -0.01  -0.01  -0.01
  12   1    -0.06  -0.33   0.05    -0.02  -0.09   0.00    -0.00   0.01  -0.00
  13   6     0.05   0.09  -0.04     0.00   0.02  -0.02     0.01   0.02  -0.00
  14   1    -0.11  -0.04   0.07    -0.01  -0.00   0.00     0.04   0.03  -0.03
  15   1     0.03   0.21  -0.03     0.00   0.03  -0.01    -0.00  -0.04  -0.01
  16   1     0.16  -0.07  -0.09     0.02  -0.01  -0.02    -0.02   0.03   0.03
  17   6    -0.09  -0.12   0.10    -0.03   0.01  -0.02    -0.01  -0.02   0.03
  18   1    -0.33  -0.01  -0.02    -0.02   0.00  -0.01    -0.02  -0.00   0.01
  19   1     0.06  -0.20   0.25    -0.01   0.00  -0.00     0.00  -0.02   0.02
  20   1     0.17   0.10  -0.14    -0.00   0.01  -0.01     0.01  -0.00  -0.00
  21   1    -0.04  -0.07  -0.03     0.01  -0.01  -0.01    -0.01  -0.01   0.00
  22   6     0.01  -0.00  -0.02     0.00   0.00   0.00     0.00   0.00  -0.00
  23   8    -0.00   0.01  -0.03     0.00   0.00   0.00     0.00   0.01  -0.00
  24   7     0.01   0.01  -0.01     0.00   0.00  -0.01     0.00   0.00  -0.01
  25   1     0.01  -0.01   0.00     0.00  -0.00  -0.00     0.00  -0.00  -0.00
  26   1     0.01  -0.03   0.00    -0.00  -0.01  -0.00     0.00  -0.02   0.00
  27   7     0.02   0.00  -0.03    -0.00   0.00   0.00     0.00  -0.00   0.00
  28   1     0.01  -0.01  -0.00    -0.00   0.00  -0.00    -0.00   0.01  -0.00
  29   1     0.01  -0.01   0.00    -0.00   0.00   0.00    -0.00   0.00   0.00
  30   6     0.01  -0.00  -0.00    -0.02  -0.00   0.02    -0.05  -0.03   0.02
  31   8     0.02  -0.01   0.01    -0.00   0.01  -0.00    -0.01  -0.02  -0.01
  32   7    -0.03   0.01   0.01     0.10   0.01  -0.05     0.29   0.07  -0.20
  33   1     0.02   0.01  -0.01    -0.10  -0.01   0.06    -0.33  -0.02   0.20
  34   1     0.03   0.01  -0.03    -0.19  -0.03   0.14    -0.62  -0.10   0.44
  35   7     0.00  -0.02  -0.01    -0.01   0.02   0.02     0.00  -0.01  -0.01
  36   1    -0.02  -0.00   0.01     0.07  -0.01  -0.05     0.09  -0.03  -0.05
  37   1    -0.01  -0.00   0.00    -0.00  -0.01   0.01     0.04   0.00  -0.02
  38   6     0.00  -0.00  -0.00     0.00   0.00   0.00     0.00  -0.00  -0.00
  39   8     0.01  -0.01  -0.00     0.00   0.01   0.00     0.00  -0.00  -0.00
  40   7     0.01   0.00   0.01    -0.01  -0.01   0.01     0.01   0.00  -0.00
  41   1     0.01   0.00   0.00     0.01   0.01  -0.01    -0.00  -0.00   0.00
  42   1     0.00   0.00   0.00     0.02   0.02  -0.01    -0.00  -0.00   0.00
  43   7    -0.01   0.00  -0.01     0.00  -0.00   0.01    -0.01  -0.00  -0.00
  44   1    -0.01   0.00   0.00     0.00  -0.00   0.00     0.00   0.00  -0.00
  45   1    -0.01  -0.00  -0.00     0.00  -0.00   0.00    -0.00   0.00  -0.00
  46   6     0.01   0.05   0.03    -0.03   0.04   0.00     0.01  -0.00  -0.00
  47   8     0.00   0.10   0.02    -0.02   0.05  -0.01     0.01   0.00   0.01
  48   7     0.06  -0.03   0.02    -0.01   0.20  -0.08     0.01  -0.08   0.04
  49   1     0.01   0.06  -0.02     0.04  -0.26   0.11    -0.01   0.11  -0.04
  50   1     0.01   0.04  -0.03     0.03  -0.38   0.20    -0.01   0.16  -0.09
  51   7    -0.06   0.03   0.03     0.06  -0.27   0.15    -0.02   0.06  -0.03
  52   1    -0.00  -0.07   0.02    -0.15   0.50  -0.22     0.04  -0.15   0.07
  53   1    -0.02  -0.02   0.03    -0.07   0.32  -0.13     0.02  -0.07   0.02
                     31                     32                     33
                        a                      a                      a 
 Frequencies --   315.2909               320.5012               322.4283
 Red. masses --     7.0524                 3.5297                 4.9615
 Frc consts  --     0.0000                 0.0000                 0.0000
 IR Inten    --     1.3765                66.9591                35.5288
 Raman Activ --     0.0000                 0.0000                 0.0000
 Depolar     --     0.0000                 0.0000                 0.0000
 Atom AN      X      Y      Z        X      Y      Z        X      Y      Z
   1   8     0.21   0.16   0.35     0.01  -0.12  -0.02     0.12  -0.10   0.12
   2   6     0.14  -0.05  -0.01     0.02   0.17   0.02     0.11   0.20   0.01
   3   1    -0.02  -0.06   0.02     0.06   0.10  -0.04     0.07   0.12  -0.05
   4   1     0.07  -0.05  -0.05    -0.04   0.10   0.08    -0.02   0.11   0.07
   5   6     0.06  -0.01  -0.03     0.01  -0.03  -0.01     0.03  -0.03  -0.02
   6   1     0.02   0.01  -0.02     0.01  -0.02   0.02     0.01  -0.02   0.01
   7   1     0.02  -0.03   0.03     0.00  -0.02  -0.01     0.01  -0.03   0.01
   8   7    -0.13   0.02  -0.07    -0.01  -0.05  -0.03    -0.07  -0.04  -0.07
   9   6    -0.11  -0.25   0.03    -0.02  -0.05  -0.04    -0.07  -0.18  -0.01
  10   1    -0.14   0.06  -0.17     0.03  -0.10   0.10     0.00  -0.17   0.15
  11   1     0.14   0.01   0.22    -0.06  -0.08  -0.13    -0.05  -0.15  -0.17
  12   1    -0.09  -0.36   0.02     0.01   0.12  -0.01    -0.01   0.12   0.01
  13   6    -0.03   0.26  -0.12     0.03   0.12  -0.05     0.03   0.28  -0.11
  14   1    -0.03   0.10  -0.07     0.11   0.12  -0.12     0.15   0.21  -0.20
  15   1    -0.02   0.09  -0.05    -0.01  -0.12  -0.03    -0.02  -0.13  -0.06
  16   1     0.04   0.09   0.02    -0.07   0.14   0.11    -0.08   0.24   0.16
  17   6    -0.18   0.03  -0.09    -0.06  -0.14   0.09    -0.16  -0.16   0.09
  18   1     0.15  -0.00   0.02    -0.06  -0.02   0.05    -0.12  -0.01   0.05
  19   1    -0.12   0.10  -0.20    -0.01  -0.08   0.05    -0.03  -0.12   0.06
  20   1    -0.21  -0.07   0.11     0.00  -0.03   0.01    -0.01  -0.02  -0.01
  21   1     0.10   0.03   0.12    -0.03  -0.04  -0.01     0.00  -0.03   0.03
  22   6     0.01   0.01   0.01     0.01   0.02  -0.00     0.01  -0.00   0.00
  23   8     0.01   0.01   0.01    -0.00   0.02  -0.01     0.01   0.01  -0.01
  24   7     0.01  -0.01  -0.01     0.01  -0.02  -0.01     0.01   0.02  -0.01
  25   1     0.01   0.01  -0.01     0.00   0.01  -0.01     0.01  -0.01  -0.00
  26   1    -0.01   0.02  -0.01    -0.00   0.01  -0.01     0.01  -0.03   0.00
  27   7    -0.00  -0.01   0.02     0.00  -0.02   0.02     0.01   0.02  -0.01
  28   1    -0.00   0.02  -0.00    -0.01   0.06  -0.02     0.01  -0.06   0.02
  29   1    -0.00   0.01  -0.00    -0.00   0.02  -0.00     0.00  -0.01   0.01
  30   6     0.01  -0.00   0.01    -0.00   0.00   0.00     0.00   0.00   0.00
  31   8     0.01  -0.00   0.01    -0.01   0.00   0.01    -0.00   0.00   0.00
  32   7     0.01   0.01   0.01    -0.01  -0.00   0.01    -0.02  -0.01   0.02
  33   1     0.01   0.01   0.00     0.01   0.00  -0.01     0.02  -0.00  -0.01
  34   1     0.01   0.00  -0.01     0.03   0.01  -0.02     0.05   0.01  -0.04
  35   7     0.00  -0.01   0.00     0.00  -0.00  -0.00    -0.00  -0.00  -0.00
  36   1    -0.01  -0.00   0.01    -0.00   0.00   0.00    -0.01   0.00  -0.00
  37   1     0.01  -0.00  -0.00    -0.01  -0.00   0.00    -0.00  -0.01   0.00
  38   6    -0.00  -0.01  -0.01     0.00  -0.03   0.03    -0.01   0.01  -0.03
  39   8    -0.01   0.01  -0.00     0.01  -0.00   0.02    -0.02   0.01  -0.01
  40   7    -0.04  -0.03  -0.00    -0.03  -0.04   0.02     0.02   0.02  -0.03
  41   1     0.01   0.01  -0.02     0.04   0.03  -0.03    -0.02  -0.04   0.03
  42   1     0.04   0.05  -0.04     0.14   0.16  -0.10    -0.09  -0.09   0.06
  43   7     0.04   0.02  -0.04     0.09   0.21  -0.20    -0.06  -0.14   0.11
  44   1    -0.03  -0.09   0.06    -0.23  -0.47   0.39     0.15   0.30  -0.25
  45   1    -0.01  -0.04   0.04    -0.14  -0.19   0.19     0.08   0.12  -0.13
  46   6    -0.02  -0.04  -0.04     0.01   0.02   0.02     0.00   0.01   0.00
  47   8    -0.02  -0.06  -0.04     0.01   0.03   0.01     0.00   0.01   0.00
  48   7    -0.06  -0.04   0.00     0.03   0.01   0.00     0.01   0.01  -0.00
  49   1    -0.02   0.01  -0.01     0.01   0.00   0.00     0.00  -0.01   0.00
  50   1    -0.02   0.06  -0.03     0.01  -0.02   0.01     0.00  -0.03   0.01
  51   7     0.07   0.02  -0.05    -0.03  -0.01   0.02    -0.00  -0.02   0.01
  52   1     0.04  -0.04   0.03    -0.02   0.02  -0.02    -0.01   0.04  -0.02
  53   1     0.04  -0.04  -0.01    -0.02   0.02   0.01    -0.01   0.02  -0.00
                     34                     35                     36
                        a                      a                      a 
 Frequencies --   346.9889               363.0154               371.7705
 Red. masses --     3.6231                 7.7019                 3.2901
 Frc consts  --     0.0000                 0.0000                 0.0000
 IR Inten    --     4.7301                 1.4818                 6.8840
 Raman Activ --     0.0000                 0.0000                 0.0000
 Depolar     --     0.0000                 0.0000                 0.0000
 Atom AN      X      Y      Z        X      Y      Z        X      Y      Z
   1   8    -0.11  -0.03  -0.26    -0.01   0.05  -0.04    -0.02  -0.10  -0.15
   2   6    -0.08   0.19   0.04    -0.02   0.02  -0.19    -0.00   0.25   0.02
   3   1     0.03   0.11  -0.04    -0.03   0.05  -0.11     0.06   0.15  -0.06
   4   1    -0.05   0.11   0.10    -0.01   0.03  -0.01    -0.05   0.14   0.12
   5   6    -0.01  -0.05   0.02     0.14  -0.19  -0.25     0.10  -0.12  -0.05
   6   1     0.04  -0.02   0.03     0.16  -0.01  -0.09     0.13  -0.04   0.02
   7   1    -0.01  -0.03  -0.03     0.03  -0.18  -0.13     0.01  -0.10  -0.08
   8   7     0.04  -0.06   0.02    -0.02  -0.00   0.01     0.01  -0.07   0.01
   9   6     0.06   0.09   0.02     0.12  -0.16   0.41     0.00   0.02  -0.01
  10   1    -0.02   0.19  -0.21     0.10  -0.11   0.20     0.03  -0.04   0.06
  11   1     0.09   0.16   0.26     0.10  -0.11   0.05    -0.05  -0.03  -0.08
  12   1    -0.02  -0.23  -0.01    -0.05   0.03   0.20     0.02   0.11  -0.00
  13   6    -0.02  -0.16   0.06    -0.26   0.07   0.23    -0.01   0.08   0.05
  14   1     0.23   0.09  -0.15    -0.10   0.05   0.02    -0.22  -0.09   0.14
  15   1    -0.04  -0.39   0.02    -0.04  -0.03   0.16     0.03   0.31   0.03
  16   1    -0.24   0.14   0.20    -0.16   0.06   0.09     0.18  -0.13  -0.13
  17   6     0.14  -0.05   0.01     0.09   0.20  -0.24    -0.06  -0.12   0.08
  18   1     0.26  -0.03   0.04    -0.01   0.00  -0.16     0.30  -0.05   0.10
  19   1    -0.02   0.12  -0.14     0.05   0.09  -0.02    -0.12   0.12  -0.23
  20   1    -0.08  -0.12   0.11     0.07   0.14  -0.10    -0.24  -0.17   0.21
  21   1    -0.08  -0.04  -0.04     0.01  -0.00   0.02    -0.06  -0.05  -0.03
  22   6     0.00   0.00  -0.00    -0.01  -0.01  -0.01     0.01  -0.05   0.03
  23   8     0.00   0.00   0.00    -0.00  -0.00  -0.00     0.01  -0.03   0.03
  24   7     0.00  -0.00   0.01    -0.02   0.01   0.03    -0.01   0.07  -0.02
  25   1    -0.01   0.01   0.00    -0.02   0.00   0.02     0.01  -0.02   0.00
  26   1     0.00   0.01   0.00     0.01   0.00   0.02    -0.00  -0.04   0.00
  27   7    -0.01  -0.01   0.01    -0.02   0.01  -0.01    -0.00   0.10  -0.03
  28   1    -0.00   0.02  -0.01    -0.01  -0.04   0.01     0.01  -0.28   0.10
  29   1    -0.00   0.00  -0.00    -0.00  -0.01   0.01     0.01  -0.04   0.02
  30   6    -0.01  -0.00   0.01    -0.00   0.01  -0.00     0.00   0.01  -0.01
  31   8    -0.02  -0.00   0.02     0.00   0.01  -0.01     0.01   0.01  -0.01
  32   7    -0.01  -0.00   0.00     0.00  -0.01   0.00     0.00  -0.00  -0.00
  33   1     0.01   0.00  -0.00    -0.00  -0.01  -0.00     0.00  -0.00  -0.00
  34   1     0.03   0.01  -0.03    -0.00  -0.01   0.01    -0.01  -0.00   0.01
  35   7     0.00  -0.01  -0.00    -0.01   0.00  -0.00    -0.01   0.01   0.00
  36   1    -0.01  -0.00   0.00     0.00  -0.00  -0.01     0.01  -0.00  -0.01
  37   1    -0.00  -0.00   0.00    -0.00  -0.01   0.00    -0.00  -0.00   0.00
  38   6     0.00  -0.00   0.00    -0.01  -0.00   0.01     0.01   0.01  -0.00
  39   8    -0.00  -0.01   0.00     0.00  -0.01   0.01     0.00   0.02   0.00
  40   7     0.00  -0.00  -0.01     0.01   0.02  -0.00    -0.03  -0.02  -0.01
  41   1    -0.00  -0.00  -0.00    -0.01  -0.00   0.01     0.00  -0.00  -0.01
  42   1    -0.01  -0.01   0.00    -0.02  -0.02   0.01     0.04   0.05  -0.04
  43   7    -0.03  -0.02   0.02     0.02   0.02  -0.00    -0.03  -0.01   0.01
  44   1     0.02   0.07  -0.05    -0.01  -0.03   0.02     0.00   0.03  -0.01
  45   1     0.00   0.02  -0.03    -0.00  -0.01   0.02    -0.00   0.01  -0.02
  46   6     0.01   0.02   0.01    -0.00   0.00  -0.00     0.01   0.03   0.01
  47   8     0.00   0.03   0.00    -0.00   0.00  -0.00     0.01   0.03   0.00
  48   7     0.03   0.00   0.00    -0.01  -0.01   0.00     0.03  -0.03   0.02
  49   1     0.01   0.01  -0.00    -0.00   0.01  -0.00     0.00   0.04  -0.02
  50   1     0.01  -0.01   0.00    -0.00   0.02  -0.01     0.00   0.04  -0.02
  51   7    -0.02  -0.00   0.02     0.01  -0.01   0.00    -0.02  -0.03   0.03
  52   1    -0.01   0.00  -0.01    -0.01   0.03  -0.01    -0.03   0.05  -0.04
  53   1    -0.01   0.01   0.01     0.00   0.01  -0.01    -0.02   0.03   0.00
                     37                     38                     39
                        a                      a                      a 
 Frequencies --   374.3074               380.1806               413.2644
 Red. masses --     3.2061                 3.8602                 3.2180
 Frc consts  --     0.0000                 0.0000                 0.0000
 IR Inten    --   299.1974               269.0004               410.6043
 Raman Activ --     0.0000                 0.0000                 0.0000
 Depolar     --     0.0000                 0.0000                 0.0000
 Atom AN      X      Y      Z        X      Y      Z        X      Y      Z
   1   8     0.00  -0.04  -0.05    -0.00  -0.03  -0.03    -0.03  -0.01  -0.02
   2   6     0.01   0.10   0.00     0.00   0.04  -0.01    -0.03  -0.03   0.00
   3   1     0.02   0.05  -0.02     0.02   0.03  -0.02    -0.01  -0.01   0.01
   4   1    -0.02   0.05   0.04    -0.01   0.03   0.02    -0.00  -0.01  -0.01
   5   6     0.04  -0.05  -0.02     0.02  -0.03  -0.02     0.01  -0.00  -0.01
   6   1     0.05  -0.01   0.01     0.03  -0.01   0.00     0.01   0.00  -0.01
   7   1     0.01  -0.05  -0.03     0.00  -0.02  -0.02     0.00  -0.00  -0.01
   8   7    -0.01  -0.02  -0.00    -0.00  -0.02   0.00     0.03   0.01   0.01
   9   6    -0.00   0.01   0.02     0.01  -0.02   0.02     0.03  -0.01  -0.01
  10   1     0.02  -0.03   0.04     0.01  -0.01   0.02     0.00  -0.01   0.01
  11   1    -0.02  -0.02  -0.04     0.00  -0.01  -0.01     0.01  -0.01  -0.02
  12   1     0.00   0.05   0.01     0.00   0.01   0.01     0.01   0.00  -0.00
  13   6    -0.02   0.05   0.02    -0.02   0.03   0.03    -0.00   0.01   0.03
  14   1    -0.09  -0.03   0.05    -0.04  -0.00   0.02     0.00   0.01   0.00
  15   1     0.01   0.12   0.01     0.00   0.05   0.02     0.00  -0.01   0.02
  16   1     0.07  -0.04  -0.05     0.02  -0.01  -0.01    -0.01   0.01   0.01
  17   6    -0.02  -0.04   0.02    -0.02  -0.01  -0.01    -0.01   0.03  -0.03
  18   1     0.09  -0.01   0.03     0.03  -0.01   0.00    -0.04   0.01  -0.02
  19   1    -0.04   0.03  -0.07    -0.02   0.01  -0.03     0.00  -0.02   0.01
  20   1    -0.07  -0.05   0.06    -0.03  -0.01   0.02     0.01   0.03  -0.02
  21   1    -0.02  -0.02  -0.01    -0.01   0.02  -0.04    -0.01  -0.02   0.02
  22   6     0.01   0.12  -0.05     0.00   0.01  -0.00    -0.00   0.02  -0.01
  23   8    -0.01   0.05  -0.04    -0.00   0.01  -0.00    -0.01   0.01  -0.01
  24   7     0.05  -0.18   0.05     0.00  -0.02   0.00     0.00  -0.04   0.00
  25   1    -0.02   0.06  -0.00     0.00   0.01  -0.00    -0.00   0.02  -0.01
  26   1     0.00   0.17  -0.02    -0.00   0.02  -0.00    -0.00   0.02  -0.00
  27   7    -0.00  -0.24   0.12    -0.00  -0.03   0.02    -0.01  -0.04   0.02
  28   1    -0.03   0.76  -0.25    -0.00   0.09  -0.03    -0.00   0.16  -0.05
  29   1    -0.02   0.10  -0.06    -0.00   0.01  -0.00    -0.00  -0.01  -0.00
  30   6    -0.00   0.00  -0.00     0.00   0.01  -0.00    -0.00   0.00   0.00
  31   8     0.00   0.00  -0.00    -0.01   0.00   0.00    -0.00   0.00  -0.00
  32   7    -0.00  -0.00   0.00     0.03   0.01  -0.01    -0.00  -0.00   0.00
  33   1     0.01  -0.00  -0.01    -0.03  -0.00   0.02     0.00  -0.00  -0.00
  34   1     0.00  -0.00  -0.00    -0.05  -0.01   0.04     0.01   0.00  -0.01
  35   7    -0.00  -0.00  -0.00     0.03  -0.02  -0.02    -0.00   0.00  -0.00
  36   1     0.00  -0.00  -0.01    -0.08   0.02   0.07     0.01  -0.00  -0.01
  37   1    -0.00  -0.00   0.00    -0.00   0.02  -0.01    -0.00  -0.01   0.00
  38   6    -0.02  -0.04   0.01     0.01   0.01  -0.01     0.07   0.06  -0.02
  39   8    -0.04  -0.05   0.03     0.01   0.00  -0.01     0.09   0.03  -0.05
  40   7     0.06   0.05  -0.02    -0.04  -0.04   0.02    -0.21  -0.20   0.08
  41   1    -0.02  -0.02   0.03     0.02   0.01  -0.02     0.06  -0.02  -0.01
  42   1    -0.10  -0.12   0.08     0.08   0.10  -0.06     0.46   0.61  -0.34
  43   7     0.00   0.00  -0.02    -0.02  -0.02   0.02    -0.08  -0.11   0.15
  44   1     0.03   0.06  -0.05     0.01   0.04  -0.02     0.05   0.18  -0.10
  45   1    -0.01  -0.01  -0.00     0.00   0.01  -0.02     0.04   0.08  -0.09
  46   6     0.00   0.02   0.00     0.03  -0.10   0.05    -0.00   0.02  -0.01
  47   8     0.00   0.01   0.00     0.01  -0.06  -0.00     0.00   0.02  -0.00
  48   7     0.01  -0.03   0.02    -0.01   0.31  -0.14     0.00  -0.05   0.03
  49   1    -0.00   0.04  -0.01     0.01  -0.24   0.10     0.01   0.01  -0.00
  50   1    -0.00   0.05  -0.03     0.06  -0.53   0.31    -0.02   0.14  -0.08
  51   7    -0.00  -0.03   0.02    -0.10   0.22  -0.09     0.01  -0.04   0.02
  52   1    -0.02   0.06  -0.03     0.12  -0.42   0.20    -0.02   0.05  -0.03
  53   1    -0.01   0.03  -0.00     0.03  -0.17   0.07    -0.01   0.03  -0.01
                     40                     41                     42
                        a                      a                      a 
 Frequencies --   425.9878               451.4414               458.1257
 Red. masses --     8.7401                 2.7808                 7.9429
 Frc consts  --     0.0000                 0.0000                 0.0000
 IR Inten    --     2.1242               196.7865                 1.1975
 Raman Activ --     0.0000                 0.0000                 0.0000
 Depolar     --     0.0000                 0.0000                 0.0000
 Atom AN      X      Y      Z        X      Y      Z        X      Y      Z
   1   8    -0.15   0.03  -0.20    -0.01   0.02   0.01     0.01   0.03   0.04
   2   6    -0.11  -0.10   0.11    -0.01  -0.03   0.04    -0.00   0.03  -0.06
   3   1    -0.03  -0.03   0.04    -0.01  -0.01   0.01    -0.01   0.00  -0.01
   4   1    -0.01  -0.04   0.02     0.01  -0.01   0.01    -0.01   0.01  -0.03
   5   6     0.14  -0.04   0.05    -0.02  -0.03   0.03     0.03   0.05  -0.06
   6   1     0.11   0.01   0.02    -0.00  -0.01   0.01     0.02   0.03  -0.03
   7   1     0.03  -0.05  -0.07    -0.00  -0.00   0.01     0.01  -0.01  -0.02
   8   7     0.27   0.03   0.19    -0.01  -0.05  -0.01    -0.02   0.09   0.01
   9   6     0.10  -0.21  -0.27     0.01   0.04   0.00    -0.03  -0.07   0.01
  10   1    -0.12  -0.06  -0.10     0.02   0.02  -0.01    -0.04  -0.03   0.02
  11   1     0.02  -0.07  -0.10    -0.01   0.02   0.01     0.03  -0.04  -0.01
  12   1     0.12  -0.12  -0.16     0.00   0.02   0.00    -0.01  -0.03   0.00
  13   6     0.18   0.09   0.29     0.00   0.04  -0.01    -0.00  -0.08  -0.02
  14   1     0.04   0.06   0.04    -0.01   0.02  -0.02     0.03  -0.04   0.02
  15   1     0.06  -0.01   0.11     0.00   0.03   0.00    -0.01  -0.04  -0.01
  16   1     0.02   0.06   0.12     0.02   0.02   0.01    -0.02  -0.03  -0.03
  17   6    -0.36   0.18  -0.09     0.01  -0.01  -0.06     0.00   0.03   0.11
  18   1    -0.19   0.03  -0.08    -0.00  -0.01  -0.03     0.01   0.02   0.05
  19   1    -0.14  -0.07  -0.11     0.01   0.00  -0.01     0.00   0.00   0.03
  20   1    -0.17   0.22   0.04     0.01   0.01  -0.02     0.00  -0.02   0.03
  21   1    -0.05   0.01  -0.06     0.00   0.00   0.01     0.01   0.01   0.01
  22   6     0.00   0.01   0.02     0.00  -0.00  -0.00     0.00  -0.00  -0.01
  23   8    -0.01   0.01   0.01     0.00  -0.00  -0.00     0.01   0.00  -0.01
  24   7     0.00  -0.01  -0.03     0.00   0.00   0.01     0.00   0.00   0.01
  25   1     0.02   0.00  -0.02    -0.00   0.00   0.00    -0.01  -0.00   0.01
  26   1    -0.02  -0.01  -0.02     0.00  -0.01   0.00     0.01   0.01   0.01
  27   7     0.03   0.00   0.01    -0.01   0.00  -0.00    -0.01  -0.00   0.00
  28   1     0.01  -0.00   0.01    -0.00  -0.01   0.00    -0.01   0.00  -0.00
  29   1     0.01   0.00  -0.01    -0.00   0.00   0.00    -0.00   0.00   0.01
  30   6     0.00  -0.01   0.00    -0.02   0.04   0.02     0.01  -0.17  -0.03
  31   8    -0.00  -0.01  -0.01    -0.07   0.04   0.00    -0.02  -0.18  -0.08
  32   7    -0.00   0.01   0.00     0.11   0.02  -0.03    -0.14   0.15  -0.09
  33   1     0.00   0.01   0.01    -0.18  -0.00   0.13     0.06   0.16   0.03
  34   1     0.01   0.01  -0.02     0.04   0.01  -0.02    -0.11   0.07  -0.15
  35   7     0.01   0.00   0.01     0.15  -0.13  -0.14     0.09   0.11   0.21
  36   1     0.01  -0.00  -0.00    -0.56   0.13   0.50     0.26  -0.04  -0.03
  37   1     0.00   0.00   0.00     0.03   0.07  -0.07    -0.00   0.10   0.04
  38   6     0.01  -0.01   0.02    -0.01   0.00  -0.00    -0.00   0.00  -0.00
  39   8     0.01  -0.01   0.02    -0.01  -0.01  -0.01     0.00  -0.00  -0.01
  40   7     0.01   0.00  -0.02    -0.00   0.01   0.01    -0.00   0.00  -0.00
  41   1    -0.01   0.03  -0.03     0.00  -0.00   0.01    -0.01  -0.01   0.01
  42   1    -0.04  -0.08   0.02     0.00   0.02   0.00     0.01   0.02  -0.01
  43   7    -0.02   0.03  -0.01     0.01  -0.01   0.00     0.00  -0.01   0.00
  44   1    -0.01   0.02   0.01     0.01  -0.02  -0.00     0.00  -0.01   0.00
  45   1    -0.03  -0.02   0.00     0.02   0.01   0.00     0.02   0.02  -0.01
  46   6     0.01   0.01   0.01     0.07  -0.00  -0.05     0.21  -0.03  -0.10
  47   8     0.01   0.00  -0.00     0.09   0.01  -0.01     0.26   0.00  -0.04
  48   7     0.01   0.00   0.01    -0.02  -0.04   0.11    -0.11   0.10   0.25
  49   1    -0.01   0.01  -0.00    -0.14   0.17  -0.07    -0.28   0.11  -0.02
  50   1     0.00   0.00   0.01     0.02  -0.03   0.15     0.04   0.04   0.30
  51   7    -0.02  -0.01   0.00    -0.05  -0.03  -0.07    -0.21  -0.13  -0.18
  52   1    -0.01   0.00  -0.01    -0.11   0.20  -0.19    -0.12  -0.08  -0.20
  53   1    -0.02   0.00   0.01    -0.03  -0.18   0.12    -0.17  -0.04   0.10
                     43                     44                     45
                        a                      a                      a 
 Frequencies --   459.8174               465.4520               467.0216
 Red. masses --     7.9920                 7.1624                 4.0909
 Frc consts  --     0.0000                 0.0000                 0.0000
 IR Inten    --     5.4969                 6.9103                11.7583
 Raman Activ --     0.0000                 0.0000                 0.0000
 Depolar     --     0.0000                 0.0000                 0.0000
 Atom AN      X      Y      Z        X      Y      Z        X      Y      Z
   1   8    -0.00   0.00  -0.06    -0.01   0.02   0.03     0.01  -0.02   0.00
   2   6    -0.01  -0.12   0.20    -0.00  -0.01   0.06     0.01   0.01  -0.02
   3   1     0.00   0.00   0.02     0.00  -0.01   0.03     0.00   0.01  -0.02
   4   1     0.03  -0.03   0.11     0.00  -0.01   0.01    -0.00   0.01   0.01
   5   6    -0.00  -0.32   0.13    -0.07   0.02   0.08     0.04  -0.03  -0.03
   6   1     0.12  -0.06   0.04    -0.10  -0.03   0.04     0.06   0.01  -0.02
   7   1    -0.01  -0.18  -0.03    -0.01   0.09   0.06     0.01  -0.06  -0.03
   8   7    -0.18  -0.16   0.16     0.08  -0.13  -0.11    -0.07   0.05   0.05
   9   6    -0.24   0.17  -0.02     0.15   0.09   0.01    -0.10  -0.03   0.01
  10   1    -0.03   0.08  -0.04     0.10   0.05  -0.02    -0.04  -0.02   0.02
  11   1    -0.17   0.09   0.01     0.02   0.06   0.04    -0.02  -0.02  -0.02
  12   1    -0.01   0.08  -0.05     0.02   0.04   0.03    -0.01  -0.00  -0.01
  13   6     0.20   0.19  -0.11    -0.09   0.11   0.05     0.05  -0.04  -0.05
  14   1     0.08   0.10  -0.09    -0.10   0.06  -0.03     0.05  -0.02   0.00
  15   1     0.02   0.09  -0.14     0.00   0.06   0.08    -0.00  -0.02  -0.05
  16   1     0.18   0.08   0.06    -0.03   0.05   0.04     0.03  -0.02  -0.02
  17   6     0.13   0.14  -0.21    -0.03  -0.14  -0.14     0.04   0.07   0.06
  18   1     0.04  -0.04  -0.18    -0.02  -0.04  -0.04     0.02   0.01   0.01
  19   1     0.07   0.14   0.00    -0.01  -0.05  -0.05     0.02   0.04   0.03
  20   1     0.09   0.10  -0.11    -0.02  -0.02  -0.03     0.03   0.01   0.00
  21   1    -0.01   0.01  -0.03     0.00   0.03  -0.03     0.01   0.00  -0.01
  22   6     0.01  -0.02  -0.10    -0.02   0.01   0.07     0.00  -0.01  -0.03
  23   8     0.10  -0.00  -0.06    -0.07   0.00   0.06     0.03  -0.00  -0.02
  24   7     0.02   0.04   0.12    -0.03  -0.02  -0.08     0.01   0.01   0.03
  25   1    -0.07  -0.06   0.11     0.05   0.04  -0.08    -0.02  -0.02   0.03
  26   1     0.09   0.08   0.07    -0.07  -0.06  -0.05     0.03   0.02   0.02
  27   7    -0.14  -0.02  -0.00     0.11   0.01  -0.00    -0.05  -0.00   0.00
  28   1    -0.08  -0.03  -0.02     0.07   0.02   0.02    -0.03  -0.02  -0.00
  29   1    -0.04   0.01   0.05     0.03  -0.01  -0.04    -0.01   0.01   0.02
  30   6    -0.00   0.02  -0.00    -0.02   0.12   0.00     0.00  -0.09   0.01
  31   8     0.02   0.01   0.01     0.04   0.11   0.07    -0.05  -0.08  -0.06
  32   7    -0.01  -0.03   0.02     0.05  -0.11   0.06    -0.00   0.09  -0.06
  33   1     0.03  -0.02  -0.03     0.03  -0.13  -0.09    -0.12   0.11   0.14
  34   1     0.01  -0.01   0.02     0.04  -0.06   0.14     0.01   0.06  -0.15
  35   7    -0.04   0.01  -0.00    -0.09  -0.07  -0.14     0.11   0.01   0.07
  36   1     0.09  -0.03  -0.11    -0.08  -0.00  -0.09    -0.12   0.04   0.24
  37   1    -0.02  -0.03   0.01    -0.04  -0.09   0.00     0.04   0.09  -0.02
  38   6    -0.02   0.00  -0.01    -0.02   0.00  -0.01     0.14  -0.02   0.05
  39   8    -0.02  -0.01  -0.02    -0.02  -0.01  -0.02     0.09   0.08   0.14
  40   7    -0.00   0.01   0.04    -0.00   0.02   0.03    -0.00  -0.15  -0.13
  41   1     0.02   0.01   0.01     0.02   0.01  -0.00    -0.04   0.05  -0.10
  42   1     0.00   0.03   0.01    -0.02  -0.01   0.03     0.00  -0.14  -0.07
  43   7     0.03  -0.02  -0.00     0.03  -0.01  -0.01    -0.12   0.11  -0.02
  44   1     0.02  -0.02  -0.01     0.02  -0.01  -0.02    -0.06   0.26   0.02
  45   1     0.02   0.00   0.02     0.00  -0.02   0.03    -0.28  -0.24   0.02
  46   6     0.05   0.00  -0.01     0.17   0.01  -0.06     0.01   0.01  -0.01
  47   8     0.05  -0.00  -0.02     0.19   0.00  -0.09     0.00   0.01  -0.03
  48   7    -0.01   0.03   0.05    -0.08   0.17   0.20    -0.04   0.09   0.01
  49   1    -0.05   0.02   0.00    -0.06  -0.28   0.17     0.12  -0.37   0.18
  50   1     0.01   0.01   0.06    -0.01   0.28   0.02    -0.04   0.23  -0.17
  51   7    -0.06  -0.03  -0.03    -0.17  -0.17  -0.08    -0.00  -0.09   0.03
  52   1    -0.02  -0.05  -0.03    -0.04  -0.24  -0.06     0.04  -0.14   0.07
  53   1    -0.05   0.02   0.01    -0.18   0.19  -0.02    -0.03   0.18  -0.09
                     46                     47                     48
                        a                      a                      a 
 Frequencies --   467.6652               470.3992               473.3846
 Red. masses --     5.0489                 2.8642                 7.6913
 Frc consts  --     0.0000                 0.0000                 0.0000
 IR Inten    --    19.1725                14.5984                16.6429
 Raman Activ --     0.0000                 0.0000                 0.0000
 Depolar     --     0.0000                 0.0000                 0.0000
 Atom AN      X      Y      Z        X      Y      Z        X      Y      Z
   1   8     0.02   0.01   0.03     0.00  -0.00  -0.01     0.00  -0.00  -0.00
   2   6     0.01  -0.03   0.03     0.00  -0.02   0.03     0.01  -0.04   0.10
   3   1    -0.00  -0.01   0.01     0.01   0.01  -0.01     0.01  -0.00   0.02
   4   1     0.01  -0.01   0.00     0.01   0.00   0.03     0.01  -0.01   0.04
   5   6    -0.02  -0.02   0.02    -0.00  -0.09   0.02    -0.10  -0.06   0.11
   6   1    -0.02  -0.01   0.01     0.03  -0.02   0.00    -0.12  -0.05   0.04
   7   1    -0.00   0.01   0.02    -0.00  -0.05  -0.01    -0.02   0.07   0.07
   8   7    -0.01  -0.04  -0.03    -0.05  -0.04   0.04     0.06  -0.19  -0.09
   9   6     0.01   0.04   0.02    -0.06   0.05   0.01     0.14   0.17   0.02
  10   1     0.03   0.02  -0.00    -0.00   0.02  -0.00     0.13   0.07  -0.02
  11   1    -0.01   0.02   0.02    -0.04   0.02   0.00    -0.02   0.09   0.05
  12   1    -0.01   0.02   0.01    -0.00   0.03  -0.01     0.02   0.08   0.03
  13   6    -0.02   0.04  -0.02     0.05   0.05  -0.02    -0.07   0.18   0.06
  14   1    -0.02   0.02  -0.02     0.02   0.02  -0.02    -0.11   0.09  -0.05
  15   1    -0.00   0.02  -0.00     0.01   0.02  -0.03     0.01   0.09   0.08
  16   1     0.00   0.02   0.01     0.05   0.02   0.01     0.00   0.08   0.07
  17   6     0.03  -0.02  -0.05     0.06   0.04  -0.05    -0.00  -0.13  -0.22
  18   1     0.00  -0.01  -0.03     0.03  -0.01  -0.05    -0.01  -0.05  -0.09
  19   1     0.02   0.00   0.00     0.02   0.05  -0.00    -0.00  -0.03  -0.07
  20   1     0.02   0.00  -0.03     0.03   0.02  -0.02    -0.00   0.01  -0.06
  21   1     0.01  -0.01   0.02    -0.00  -0.00  -0.00    -0.00  -0.00  -0.00
  22   6    -0.02   0.00   0.06    -0.01  -0.05   0.10    -0.05   0.05   0.10
  23   8    -0.06  -0.01   0.05    -0.11  -0.06   0.06    -0.09   0.04   0.10
  24   7    -0.03  -0.03  -0.06    -0.02  -0.08  -0.04    -0.07  -0.02  -0.15
  25   1     0.03   0.09  -0.09     0.04   0.65  -0.29     0.08  -0.26  -0.02
  26   1    -0.06  -0.09  -0.03    -0.09  -0.48  -0.01    -0.10   0.14  -0.10
  27   7     0.08   0.02  -0.01     0.11   0.13  -0.02     0.17  -0.04  -0.01
  28   1     0.05   0.02   0.01     0.08   0.13  -0.01     0.12  -0.02   0.04
  29   1     0.02  -0.02  -0.03     0.05  -0.14  -0.02     0.04   0.04  -0.10
  30   6    -0.00   0.07  -0.01     0.01  -0.07  -0.00     0.02  -0.17  -0.00
  31   8     0.04   0.06   0.05    -0.02  -0.07  -0.05    -0.04  -0.17  -0.10
  32   7     0.01  -0.07   0.05    -0.03   0.06  -0.04    -0.09   0.15  -0.10
  33   1     0.08  -0.09  -0.11    -0.03   0.08   0.06    -0.02   0.17   0.10
  34   1    -0.00  -0.05   0.12    -0.02   0.04  -0.09    -0.09   0.08  -0.18
  35   7    -0.08  -0.01  -0.07     0.05   0.03   0.08     0.12   0.08   0.20
  36   1     0.07  -0.03  -0.17     0.04   0.00   0.06     0.14  -0.01   0.09
[...]
  44   1     0.00   0.00   0.00     0.01   0.00   0.01     0.00  -0.00   0.00
  45   1    -0.01   0.01   0.00    -0.01   0.02   0.00    -0.00   0.00   0.00
  46   6    -0.00   0.00   0.00     0.00  -0.00  -0.00    -0.00  -0.00  -0.01
  47   8     0.00  -0.00  -0.00    -0.00   0.00   0.00    -0.00  -0.00   0.00
  48   7     0.00   0.00   0.00    -0.00   0.00  -0.00    -0.01  -0.00  -0.01
  49   1    -0.00  -0.00  -0.00     0.00   0.00   0.00    -0.02   0.02   0.07
  50   1    -0.00   0.00   0.00     0.00  -0.00  -0.00     0.07  -0.01  -0.02
  51   7     0.00   0.00   0.00    -0.00  -0.00  -0.00    -0.05  -0.08  -0.17
  52   1     0.00   0.00  -0.00    -0.00  -0.00   0.00    -0.44  -0.05   0.17
  53   1    -0.00  -0.00  -0.00     0.00   0.00   0.00     0.62   0.34   0.48
                    142                    143                    144
                        a                      a                      a 
 Frequencies --  3492.0225              3495.2824              3496.2286
 Red. masses --     1.4575                 1.4534                 1.4518
 Frc consts  --     0.0000                 0.0000                 0.0000
 IR Inten    --    20.2410                17.4527                18.8587
 Raman Activ --     0.0000                 0.0000                 0.0000
 Depolar     --     0.0000                 0.0000                 0.0000
 Atom AN      X      Y      Z        X      Y      Z        X      Y      Z
   1   8    -0.00   0.00   0.00     0.00  -0.00  -0.00    -0.00  -0.00  -0.00
   2   6    -0.00   0.00  -0.00     0.00  -0.00  -0.00     0.00  -0.00   0.00
   3   1    -0.00  -0.00  -0.00    -0.00   0.00   0.00    -0.00   0.00   0.00
   4   1     0.00   0.00  -0.00    -0.00  -0.00   0.00     0.00  -0.00   0.00
   5   6     0.00   0.00  -0.00    -0.00  -0.00   0.00     0.00  -0.00  -0.00
   6   1     0.00  -0.00   0.00    -0.00   0.00  -0.00    -0.00   0.00   0.00
   7   1    -0.00  -0.00   0.00     0.00  -0.00  -0.00    -0.00   0.00   0.00
   8   7    -0.00  -0.00   0.00    -0.00   0.00  -0.00     0.00   0.00   0.00
   9   6     0.00  -0.00   0.00    -0.00  -0.00  -0.00     0.00  -0.00  -0.00
  10   1     0.00   0.00   0.00    -0.00   0.00  -0.00     0.00   0.00   0.00
  11   1    -0.00  -0.00   0.00     0.00   0.00  -0.00    -0.00  -0.00   0.00
  12   1    -0.00  -0.00  -0.00     0.00   0.00   0.00     0.00  -0.00  -0.00
  13   6    -0.00   0.00   0.00    -0.00  -0.00   0.00     0.00  -0.00  -0.00
  14   1     0.00   0.00   0.00    -0.00   0.00   0.00    -0.00   0.00   0.00
  15   1    -0.00   0.00  -0.00     0.00  -0.00  -0.00     0.00  -0.00  -0.00
  16   1    -0.00  -0.00   0.00     0.00   0.00  -0.00    -0.00  -0.00   0.00
  17   6     0.00   0.00   0.00    -0.00  -0.00  -0.00     0.00   0.00  -0.00
  18   1    -0.00  -0.00   0.00     0.00   0.00  -0.00    -0.00  -0.00   0.00
  19   1    -0.00   0.00  -0.00     0.00  -0.00  -0.00    -0.00   0.00   0.00
  20   1    -0.00   0.00  -0.00     0.00   0.00   0.00     0.00  -0.00   0.00
  21   1     0.01  -0.02  -0.01    -0.00   0.00   0.00     0.00  -0.00   0.00
  22   6    -0.00  -0.00  -0.00     0.00  -0.00  -0.00    -0.00   0.00   0.00
  23   8    -0.00   0.00   0.00    -0.00   0.00   0.00     0.00  -0.00  -0.00
  24   7    -0.00  -0.00   0.00    -0.00  -0.00   0.00    -0.00  -0.00  -0.00
  25   1     0.00   0.00   0.00     0.00   0.00   0.00     0.00   0.00   0.00
  26   1     0.00  -0.00  -0.00     0.00  -0.00  -0.00     0.00  -0.00  -0.00
  27   7     0.00   0.00   0.00    -0.00  -0.00  -0.00     0.00  -0.00  -0.00
  28   1     0.00  -0.00  -0.00    -0.01   0.00   0.01    -0.00   0.00   0.00
  29   1    -0.00  -0.00   0.00     0.02   0.00  -0.00    -0.00  -0.00   0.00
  30   6     0.00   0.00  -0.00     0.00   0.00   0.00    -0.00   0.00   0.00
  31   8    -0.00  -0.00  -0.00    -0.00  -0.00  -0.00     0.00  -0.00  -0.00
  32   7    -0.00  -0.00  -0.00    -0.00  -0.00  -0.00     0.08   0.07   0.15
  33   1     0.00  -0.00   0.00     0.00  -0.00   0.00    -0.29   0.44  -0.41
  34   1    -0.00   0.01   0.00    -0.00   0.00   0.00     0.01  -0.70  -0.15
  35   7    -0.00   0.00  -0.00     0.00  -0.00  -0.00    -0.01  -0.02  -0.00
  36   1    -0.00  -0.01  -0.00    -0.00  -0.00   0.00     0.02   0.06  -0.00
  37   1     0.01   0.01   0.01     0.00   0.00   0.00     0.01   0.00   0.01
  38   6    -0.00   0.00   0.00     0.00   0.00   0.00     0.00   0.00   0.00
  39   8     0.00  -0.00   0.00    -0.00   0.00  -0.00    -0.00  -0.00  -0.00
  40   7     0.00  -0.00   0.00    -0.00  -0.00  -0.01     0.00  -0.00  -0.00
  41   1    -0.00   0.00   0.00     0.00   0.01   0.02     0.00   0.00   0.00
  42   1    -0.00   0.00  -0.00     0.02  -0.01   0.02    -0.00   0.00  -0.00
  43   7     0.00   0.00   0.00     0.03   0.12   0.13     0.00   0.00   0.00
  44   1    -0.01  -0.00  -0.01    -0.62  -0.02  -0.38    -0.00  -0.00  -0.00
  45   1     0.01  -0.01  -0.00     0.49  -0.44  -0.12     0.00  -0.00  -0.00
  46   6     0.00  -0.00   0.00    -0.00   0.00   0.00     0.00   0.00   0.00
  47   8    -0.00   0.00   0.00     0.00  -0.00  -0.00    -0.00  -0.00  -0.00
  48   7     0.13   0.06   0.12    -0.00  -0.00  -0.00     0.00   0.00   0.00
  49   1     0.16  -0.25  -0.65    -0.00   0.00   0.01     0.00  -0.00  -0.01
  50   1    -0.63   0.05   0.20     0.01  -0.00  -0.00    -0.01   0.00   0.00
  51   7    -0.01  -0.01  -0.02     0.00   0.00   0.00     0.00  -0.00  -0.00
  52   1    -0.03  -0.00   0.01     0.00   0.00  -0.00    -0.01  -0.00   0.01
  53   1     0.07   0.04   0.05    -0.00  -0.00  -0.00     0.01   0.01   0.01
                    145                    146                    147
                        a                      a                      a 
 Frequencies --  3502.8153              3513.1523              3530.9321
 Red. masses --     1.4481                 1.9132                 2.0079
 Frc consts  --     0.0000                 0.0000                 0.0000
 IR Inten    --    16.6896                12.5716                20.9389
 Raman Activ --     0.0000                 0.0000                 0.0000
 Depolar     --     0.0000                 0.0000                 0.0000
 Atom AN      X      Y      Z        X      Y      Z        X      Y      Z
   1   8    -0.00   0.00   0.00     0.00  -0.00  -0.00     0.00  -0.00  -0.00
   2   6     0.00  -0.00  -0.00    -0.00  -0.00  -0.00     0.00   0.00   0.00
   3   1     0.00   0.00   0.00     0.00   0.00   0.00    -0.00  -0.00  -0.00
   4   1     0.00  -0.00  -0.00     0.00   0.00   0.00    -0.00  -0.00   0.00
   5   6    -0.00   0.00   0.00    -0.00   0.00   0.00    -0.00  -0.00  -0.00
   6   1    -0.00   0.00   0.00     0.00  -0.00  -0.00    -0.00   0.00   0.00
   7   1     0.00  -0.00  -0.00    -0.00   0.00   0.00     0.00  -0.00  -0.00
   8   7     0.00  -0.00  -0.00     0.00   0.00   0.00     0.00  -0.00  -0.00
   9   6     0.00   0.00   0.00     0.00   0.00   0.00    -0.00  -0.00  -0.00
  10   1    -0.00  -0.00  -0.00    -0.00  -0.00  -0.00    -0.00   0.00   0.00
  11   1    -0.00  -0.00   0.00    -0.00   0.00   0.00    -0.00   0.00  -0.00
  12   1     0.00   0.00   0.00    -0.00   0.00  -0.00     0.00  -0.00   0.00
  13   6    -0.00   0.00   0.00    -0.00   0.00  -0.00    -0.00  -0.00   0.00
  14   1    -0.00   0.00   0.00     0.00  -0.00   0.00     0.00   0.00   0.00
  15   1     0.00  -0.00  -0.00     0.00   0.00   0.00    -0.00  -0.00  -0.00
  16   1    -0.00  -0.00   0.00    -0.00  -0.00   0.00     0.00   0.00  -0.00
  17   6    -0.00   0.00   0.00    -0.00  -0.00  -0.00     0.00  -0.00   0.00
  18   1    -0.00  -0.00   0.00    -0.00  -0.00   0.00     0.00   0.00  -0.00
  19   1     0.00   0.00  -0.00    -0.00   0.00   0.00    -0.00   0.00   0.00
  20   1    -0.00   0.00   0.00     0.00   0.00   0.00    -0.00   0.00  -0.00
  21   1     0.00  -0.00  -0.00    -0.00   0.00   0.00    -0.00   0.01   0.00
  22   6     0.00   0.00  -0.00    -0.00   0.00  -0.00    -0.00  -0.00  -0.00
  23   8    -0.00   0.00   0.00     0.00  -0.00   0.00    -0.00   0.00   0.00
  24   7     0.18   0.03  -0.04    -0.00  -0.00   0.00    -0.00  -0.00  -0.00
  25   1    -0.35  -0.18  -0.52     0.00   0.00   0.00     0.00   0.00   0.00
  26   1    -0.31   0.08   0.66     0.00  -0.00  -0.00    -0.00  -0.00   0.00
  27   7    -0.01   0.00   0.01     0.00   0.00   0.00    -0.00   0.00   0.00
  28   1     0.02  -0.01  -0.03     0.00  -0.00  -0.00     0.01  -0.01  -0.02
  29   1     0.03   0.00  -0.00    -0.00  -0.00   0.00    -0.00   0.00   0.00
  30   6    -0.00  -0.00  -0.00     0.01   0.01   0.00     0.00   0.00   0.00
  31   8     0.00   0.00   0.00    -0.00  -0.00  -0.00    -0.00  -0.00  -0.00
  32   7     0.00   0.00   0.00     0.01  -0.01   0.01    -0.00  -0.00  -0.00
  33   1    -0.00   0.00  -0.00    -0.04   0.05  -0.05     0.00  -0.00   0.00
  34   1    -0.00  -0.00  -0.00    -0.00  -0.01  -0.00     0.00   0.00   0.00
  35   7     0.00   0.00   0.00     0.08   0.25   0.03    -0.00  -0.00  -0.00
  36   1    -0.00  -0.00  -0.00    -0.26  -0.92  -0.00     0.00   0.00   0.00
  37   1    -0.00  -0.00  -0.00    -0.04  -0.02  -0.10     0.00   0.00   0.00
  38   6     0.00   0.00  -0.00    -0.00   0.00   0.00     0.00   0.00   0.01
  39   8    -0.00  -0.00  -0.00     0.00  -0.00   0.00    -0.00  -0.00  -0.00
  40   7    -0.00  -0.00  -0.00     0.00  -0.00   0.00     0.18  -0.00   0.21
  41   1     0.00   0.00   0.00     0.00   0.00   0.00    -0.00  -0.16  -0.18
  42   1     0.00  -0.00   0.00    -0.00   0.00  -0.00    -0.65   0.16  -0.64
  43   7     0.00   0.00   0.00    -0.00   0.00   0.00    -0.03   0.02  -0.00
  44   1    -0.00  -0.00  -0.00    -0.00   0.00  -0.00     0.03   0.00   0.02
  45   1     0.00  -0.00  -0.00     0.00  -0.00  -0.00     0.06  -0.06  -0.02
  46   6     0.00  -0.00  -0.00     0.00   0.00  -0.00    -0.00   0.00   0.00
  47   8    -0.00   0.00   0.00    -0.00  -0.00   0.00     0.00  -0.00  -0.00
  48   7     0.00   0.00   0.00    -0.00  -0.00  -0.00    -0.00   0.00   0.00
  49   1     0.00  -0.00  -0.00    -0.00   0.00   0.00    -0.00   0.00  -0.00
  50   1    -0.00   0.00   0.00     0.01  -0.00  -0.00     0.01  -0.00  -0.00
  51   7    -0.00  -0.00  -0.00     0.00  -0.00  -0.00     0.00   0.00  -0.00
  52   1     0.00   0.00  -0.00    -0.02  -0.00   0.01    -0.00  -0.00   0.00
  53   1     0.00   0.00   0.00     0.01   0.01   0.01    -0.00  -0.00  -0.00
                    148                    149                    150
                        a                      a                      a 
 Frequencies --  3538.2460              3547.6931              3556.6507
 Red. masses --     1.9842                 2.1459                 2.1722
 Frc consts  --     0.0000                 0.0000                 0.0000
 IR Inten    --    19.5881                23.1171                26.9922
 Raman Activ --     0.0000                 0.0000                 0.0000
 Depolar     --     0.0000                 0.0000                 0.0000
 Atom AN      X      Y      Z        X      Y      Z        X      Y      Z
   1   8    -0.00  -0.00  -0.00    -0.00   0.00   0.00     0.00  -0.00  -0.00
   2   6     0.00  -0.00  -0.00     0.00  -0.00   0.00     0.00  -0.00   0.00
   3   1     0.00   0.00   0.00    -0.00   0.00   0.00     0.00  -0.00  -0.00
   4   1    -0.00  -0.00   0.00    -0.00  -0.00  -0.00    -0.00  -0.00   0.00
   5   6     0.00  -0.00  -0.00    -0.00  -0.00  -0.00    -0.00   0.00   0.00
   6   1    -0.00  -0.00  -0.00     0.00   0.00   0.00    -0.00  -0.00  -0.00
   7   1    -0.00  -0.00  -0.00    -0.00   0.00   0.00     0.00  -0.00  -0.00
   8   7    -0.00   0.00  -0.00     0.00   0.00   0.00    -0.00   0.00   0.00
   9   6     0.00   0.00  -0.00     0.00  -0.00  -0.00    -0.00   0.00  -0.00
  10   1    -0.00   0.00   0.00     0.00   0.00   0.00    -0.00  -0.00  -0.00
  11   1    -0.00  -0.00   0.00     0.00   0.00   0.00     0.00  -0.00   0.00
  12   1     0.00   0.00   0.00    -0.00   0.00  -0.00     0.00   0.00   0.00
  13   6     0.00   0.00  -0.00     0.00  -0.00  -0.00    -0.00   0.00   0.00
  14   1    -0.00  -0.00  -0.00    -0.00   0.00   0.00     0.00  -0.00  -0.00
  15   1    -0.00   0.00  -0.00    -0.00   0.00   0.00     0.00  -0.00   0.00
  16   1    -0.00   0.00  -0.00    -0.00   0.00  -0.00     0.00   0.00   0.00
  17   6    -0.00  -0.00  -0.00    -0.00   0.00  -0.00    -0.00   0.00  -0.00
  18   1    -0.00   0.00   0.00     0.00   0.00  -0.00     0.00   0.00  -0.00
  19   1     0.00   0.00  -0.00     0.00  -0.00   0.00     0.00  -0.00  -0.00
  20   1     0.00   0.00   0.00     0.00  -0.00   0.00     0.00  -0.00   0.00
  21   1    -0.00   0.00   0.00     0.00  -0.00  -0.00    -0.00   0.01   0.01
  22   6    -0.01   0.00   0.00    -0.00   0.00   0.00     0.00   0.00   0.00
  23   8     0.00  -0.00  -0.00     0.00  -0.00  -0.00    -0.00  -0.00  -0.00
  24   7    -0.01  -0.01  -0.02    -0.00   0.00   0.00    -0.00  -0.00  -0.00
  25   1     0.05   0.02   0.07     0.00   0.00   0.00     0.00   0.00   0.00
  26   1    -0.01   0.00   0.02     0.00  -0.00  -0.00    -0.00   0.00   0.00
  27   7    -0.17   0.06   0.21    -0.00   0.00   0.00    -0.00   0.00   0.00
  28   1     0.44  -0.25  -0.79     0.00  -0.00  -0.00     0.00  -0.00  -0.00
  29   1     0.20   0.03   0.01     0.00   0.00   0.00     0.00   0.00   0.00
  30   6     0.00  -0.00   0.00    -0.00   0.00  -0.00     0.00  -0.00   0.00
  31   8    -0.00   0.00  -0.00    -0.00  -0.00  -0.00     0.00   0.00   0.00
  32   7    -0.00   0.00   0.00     0.00  -0.00   0.00    -0.00   0.00  -0.00
  33   1     0.00  -0.00   0.00    -0.00   0.01  -0.01     0.00  -0.00   0.00
  34   1     0.00  -0.00  -0.00    -0.00   0.00   0.00     0.00  -0.00  -0.00
  35   7    -0.00  -0.00  -0.00     0.00   0.00  -0.00     0.00   0.00   0.00
  36   1     0.00   0.00  -0.00    -0.01  -0.02  -0.00     0.00   0.00   0.00
  37   1     0.00   0.00   0.00     0.00   0.00   0.01    -0.00  -0.00  -0.01
  38   6    -0.00   0.00  -0.00     0.00  -0.00   0.00     0.00  -0.00  -0.00
  39   8     0.00  -0.00   0.00    -0.00   0.00  -0.00    -0.00   0.00  -0.00
  40   7    -0.00  -0.00  -0.01     0.00   0.00   0.00     0.00   0.00   0.00
  41   1     0.00   0.01   0.01     0.00  -0.00  -0.00     0.00  -0.00   0.00
  42   1     0.01  -0.00   0.01    -0.00   0.00  -0.00    -0.00   0.00  -0.00
  43   7     0.01  -0.00   0.00    -0.00   0.00   0.00    -0.00   0.00  -0.00
  44   1    -0.02  -0.00  -0.01     0.00   0.00   0.00     0.00   0.00   0.00
  45   1    -0.01   0.01   0.00     0.00  -0.00  -0.00     0.00  -0.00  -0.00
  46   6     0.00   0.00   0.00    -0.01  -0.00  -0.00     0.01  -0.00  -0.01
  47   8    -0.00  -0.00  -0.00     0.00   0.00   0.00    -0.00   0.00   0.00
  48   7    -0.00   0.00   0.00     0.07  -0.02  -0.07     0.20  -0.07  -0.19
  49   1     0.00  -0.00  -0.00    -0.04   0.08   0.21    -0.11   0.21   0.56
  50   1     0.00  -0.00  -0.00    -0.21   0.01   0.06    -0.64   0.04   0.18
  51   7     0.00   0.00  -0.00    -0.27  -0.06   0.02     0.09   0.02  -0.01
  52   1    -0.00  -0.00   0.00     0.73   0.07  -0.31    -0.26  -0.03   0.11
  53   1    -0.00  -0.00  -0.00     0.30   0.17   0.25    -0.10  -0.06  -0.09
                    151                    152                    153
                        a                      a                      a 
 Frequencies --  3559.5728              3561.3121              3570.2227
 Red. masses --     2.1763                 2.1810                 2.1823
 Frc consts  --     0.0000                 0.0000                 0.0000
 IR Inten    --    13.3577                11.2171                 9.8277
 Raman Activ --     0.0000                 0.0000                 0.0000
 Depolar     --     0.0000                 0.0000                 0.0000
 Atom AN      X      Y      Z        X      Y      Z        X      Y      Z
   1   8     0.00   0.00   0.00     0.00  -0.00  -0.00    -0.00   0.00   0.00
   2   6    -0.00  -0.00  -0.00    -0.00   0.00   0.00     0.00  -0.00  -0.00
   3   1    -0.00   0.00   0.00     0.00  -0.00   0.00    -0.00   0.00   0.00
   4   1     0.00  -0.00  -0.00    -0.00  -0.00   0.00    -0.00  -0.00   0.00
   5   6     0.00  -0.00   0.00    -0.00   0.00   0.00    -0.00   0.00   0.00
   6   1     0.00  -0.00  -0.00    -0.00  -0.00  -0.00    -0.00  -0.00  -0.00
   7   1     0.00  -0.00   0.00     0.00  -0.00  -0.00     0.00  -0.00  -0.00
   8   7    -0.00   0.00  -0.00    -0.00  -0.00  -0.00     0.00  -0.00  -0.00
   9   6     0.00  -0.00   0.00     0.00   0.00   0.00     0.00   0.00   0.00
  10   1     0.00  -0.00  -0.00    -0.00  -0.00  -0.00    -0.00  -0.00  -0.00
  11   1     0.00  -0.00   0.00    -0.00  -0.00   0.00    -0.00  -0.00   0.00
  12   1    -0.00   0.00  -0.00    -0.00   0.00   0.00     0.00   0.00   0.00
  13   6    -0.00  -0.00   0.00    -0.00   0.00   0.00    -0.00   0.00   0.00
  14   1    -0.00  -0.00  -0.00     0.00  -0.00  -0.00    -0.00  -0.00  -0.00
  15   1     0.00  -0.00  -0.00     0.00   0.00   0.00     0.00  -0.00  -0.00
  16   1    -0.00  -0.00   0.00     0.00   0.00   0.00    -0.00  -0.00   0.00
  17   6    -0.00  -0.00  -0.00    -0.00  -0.00   0.00    -0.00  -0.00   0.00
  18   1    -0.00  -0.00  -0.00     0.00  -0.00   0.00    -0.00   0.00   0.00
  19   1     0.00   0.00  -0.00     0.00   0.00  -0.00     0.00   0.00  -0.00
  20   1    -0.00   0.00   0.00    -0.00   0.00  -0.00    -0.00   0.00   0.00
  21   1     0.00  -0.00  -0.00    -0.00   0.00   0.00     0.00  -0.00  -0.00
  22   6    -0.00  -0.00   0.00     0.00  -0.00   0.00     0.00   0.00   0.01
  23   8    -0.00  -0.00   0.00    -0.00   0.00   0.00    -0.00  -0.00  -0.00
  24   7    -0.00  -0.00  -0.00    -0.00   0.00   0.00     0.03   0.07   0.29
  25   1     0.00   0.00   0.01    -0.00  -0.00  -0.00    -0.40  -0.20  -0.55
  26   1    -0.00   0.00   0.00     0.00  -0.00  -0.00     0.29  -0.06  -0.56
  27   7    -0.00   0.00   0.00    -0.00   0.00   0.00    -0.02   0.00   0.02
  28   1     0.01  -0.00  -0.01     0.00  -0.00  -0.00     0.04  -0.02  -0.07
  29   1     0.01   0.00   0.00     0.00   0.00  -0.00     0.02   0.00   0.00
  30   6     0.00  -0.00   0.00    -0.00   0.01  -0.00    -0.00  -0.00  -0.00
  31   8    -0.00  -0.00  -0.00     0.00  -0.00   0.00     0.00   0.00   0.00
  32   7     0.00  -0.00   0.00    -0.08   0.28  -0.07     0.00  -0.00   0.00
  33   1    -0.00   0.00  -0.00     0.31  -0.43   0.45    -0.00   0.00  -0.00
  34   1     0.00   0.00   0.00    -0.00  -0.63  -0.16    -0.00   0.00   0.00
  35   7    -0.00  -0.00  -0.00     0.00   0.01   0.00    -0.00  -0.00   0.00
  36   1     0.00   0.00   0.00    -0.01  -0.05   0.00     0.00   0.00  -0.00
  37   1     0.00   0.00   0.00    -0.00  -0.00  -0.01     0.00  -0.00  -0.00
  38   6    -0.01   0.00  -0.00    -0.00   0.00  -0.00    -0.00   0.00  -0.00
  39   8     0.00  -0.00   0.00     0.00   0.00   0.00     0.00  -0.00   0.00
  40   7    -0.02  -0.00  -0.02    -0.00   0.00  -0.00    -0.00  -0.00  -0.00
  41   1    -0.00   0.02   0.02    -0.00  -0.00  -0.00     0.00   0.00   0.00
  42   1     0.06  -0.02   0.06     0.00  -0.00   0.00     0.00  -0.00   0.00
  43   7    -0.27   0.11  -0.05    -0.00   0.00  -0.00    -0.00   0.00  -0.00
  44   1     0.54   0.04   0.35     0.00   0.00   0.00     0.00   0.00   0.00
  45   1     0.49  -0.47  -0.14     0.00  -0.00  -0.00     0.00  -0.00  -0.00
  46   6    -0.00   0.00   0.00     0.00   0.00  -0.00     0.00  -0.00  -0.00
  47   8     0.00   0.00   0.00    -0.00  -0.00  -0.00    -0.00   0.00   0.00
  48   7    -0.00   0.00   0.00    -0.00   0.00   0.00    -0.00   0.00  -0.00
  49   1     0.00  -0.00  -0.00     0.00  -0.00  -0.00     0.00  -0.00  -0.00
  50   1     0.00  -0.00  -0.00     0.00  -0.00  -0.00    -0.00   0.00   0.00
  51   7    -0.00  -0.00   0.00    -0.00  -0.00  -0.00     0.00   0.00   0.00
  52   1     0.00   0.00  -0.00     0.00   0.00  -0.00    -0.00  -0.00   0.00
  53   1     0.00   0.00   0.00     0.00   0.00   0.00    -0.00  -0.00  -0.00
