 Entering Gaussian System
 *********************************************
 Gaussian 98:
 frequency output generated by the xtb code
 *********************************************
                         Standard orientation:
 --------------------------------------------------------------------
  Center     Atomic     Atomic              Coordinates (Angstroms)
  Number     Number      Type              X           Y           Z
 --------------------------------------------------------------------
    1          8             0        1.174208   -1.787655    2.125209
    2          6             0        0.178759   -2.342176    2.931614
    3          1             0        0.502108   -3.352649    3.195359
    4          1             0        0.086484   -1.766726    3.861431
    5          6             0       -1.214430   -2.327785    2.281123
    6          1             0       -1.359314   -1.337789    1.837680
    7          1             0       -1.962509   -2.483866    3.059732
    8          7             0       -1.458866   -3.331561    1.206921
    9          6             0       -0.544892   -3.093282    0.077583
   10          1             0       -0.723368   -3.824990   -0.706940
   11          1             0        0.488158   -3.153461    0.406244
   12          1             0       -0.731964   -2.090809   -0.312672
   13          6             0       -2.842648   -3.152978    0.730553
   14          1             0       -3.056204   -3.865349   -0.063648
   15          1             0       -2.950034   -2.141916    0.336337
   16          1             0       -3.547527   -3.307015    1.544783
   17          6             0       -1.293498   -4.704908    1.706068
   18          1             0       -1.904030   -4.860215    2.594245
   19          1             0       -0.252331   -4.899511    1.951914
   20          1             0       -1.602097   -5.414066    0.939712
   21          1             0        0.922416   -0.831796    2.008590
   22          6             0        2.682245   -1.659047   -1.137353
   23          8             0        1.629545   -1.034782   -1.220729
   24          7             0        3.053101   -2.297952   -0.004106
   25          1             0        2.524432   -2.101435    0.838567
   26          1             0        3.993208   -2.634309    0.105748
   27          7             0        3.529351   -1.767337   -2.190185
   28          1             0        4.337606   -2.361538   -2.164739
   29          1             0        3.234195   -1.405845   -3.079470
   30          6             0        0.277921    4.642373   -1.643075
   31          8             0       -0.323456    3.578967   -1.504028
   32          7             0        1.172995    5.077397   -0.729161
   33          1             0        1.363669    4.511136    0.079494
   34          1             0        1.676888    5.937791   -0.839658
   35          7             0        0.083511    5.437271   -2.715935
   36          1             0        0.550604    6.318392   -2.825310
   37          1             0       -0.589708    5.163158   -3.408918
   38          6             0        0.160976    1.482405    1.201258
   39          8             0        0.080310    0.601993    2.053983
   40          7             0        1.010395    1.422433    0.149753
   41          1             0        1.346068    0.509398   -0.138827
   42          1             0        0.845888    2.080595   -0.598178
   43          7             0       -0.526897    2.650691    1.308314
   44          1             0       -0.671485    3.191547    0.467681
   45          1             0       -1.219798    2.708861    2.034352
   46          6             0       -1.791049    0.493222   -1.057732
   47          8             0       -2.025654   -0.459737   -0.319672
   48          7             0       -2.552299    1.615764   -1.049200
   49          1             0       -3.267515    1.696869   -0.348634
   50          1             0       -2.196894    2.457583   -1.470511
   51          7             0       -0.814756    0.470724   -1.994870
   52          1             0       -0.563178    1.342534   -2.429737
   53          1             0       -0.081983   -0.219938   -1.906950
 --------------------------------------------------------------------
     1 basis functions        1 primitive gaussians
     1 alpha electrons        1 beta electrons

 Harmonic frequencies (cm**-1), IR intensities (km*mol⁻¹),
 Raman scattering activities (A**4/amu), Raman depolarization ratios,
 reduced masses (AMU), force constants (mDyne/A) and normal coordinates:
                      1                      2                      3
                        a                      a                      a 
 Frequencies --   -13.5686                18.9406                22.1774
 Red. masses --    12.8324                11.6157                11.8402
 Frc consts  --     0.0000                 0.0000                 0.0000
 IR Inten    --     0.2188                 1.6360                 1.9954
 Raman Activ --     0.0000                 0.0000                 0.0000
 Depolar     --     0.0000                 0.0000                 0.0000
 Atom AN      X      Y      Z        X      Y      Z        X      Y      Z
   1   8    -0.02  -0.13   0.03    -0.08  -0.08   0.02    -0.05  -0.01  -0.02
   2   6    -0.08  -0.00   0.03    -0.11  -0.05  -0.01    -0.03  -0.06  -0.04
   3   1    -0.04  -0.00   0.03    -0.04  -0.01   0.00    -0.00  -0.02  -0.02
   4   1    -0.02   0.02  -0.00    -0.04  -0.01  -0.01    -0.01  -0.03  -0.01
   5   6    -0.05   0.04  -0.01    -0.08  -0.05  -0.07    -0.03  -0.08  -0.05
   6   1     0.00   0.01  -0.02    -0.02  -0.01  -0.02    -0.02  -0.02  -0.01
   7   1    -0.02   0.03  -0.01    -0.03  -0.01  -0.03    -0.01  -0.03  -0.02
   8   7    -0.07   0.00   0.02    -0.04  -0.05  -0.08     0.01  -0.06  -0.09
   9   6    -0.03  -0.06   0.03    -0.01  -0.03  -0.05     0.00   0.01  -0.07
  10   1    -0.01  -0.02   0.01     0.00  -0.01  -0.02     0.01   0.01  -0.03
  11   1    -0.01  -0.02   0.01    -0.01  -0.01  -0.01     0.00   0.01  -0.02
  12   1     0.00  -0.02  -0.00    -0.00  -0.01  -0.01    -0.01   0.01  -0.01
  13   6    -0.05   0.03  -0.01    -0.03  -0.06  -0.11     0.00  -0.08  -0.07
  14   1    -0.01   0.00   0.00     0.00  -0.02  -0.04     0.01  -0.02  -0.03
  15   1    -0.00   0.01  -0.01    -0.01  -0.02  -0.03    -0.01  -0.02  -0.01
  16   1    -0.02   0.02  -0.01    -0.01  -0.03  -0.04     0.00  -0.04  -0.02
  17   6    -0.11   0.02   0.07    -0.04  -0.05  -0.08     0.05  -0.06  -0.12
  18   1    -0.04   0.02   0.02    -0.02  -0.02  -0.03     0.02  -0.03  -0.04
  19   1    -0.04  -0.00   0.03    -0.01  -0.01  -0.02     0.02  -0.01  -0.04
  20   1    -0.04  -0.00   0.03    -0.00  -0.01  -0.02     0.02  -0.01  -0.04
  21   1     0.01  -0.03  -0.01    -0.01  -0.02   0.01    -0.02  -0.00   0.01
  22   6     0.06  -0.14   0.03     0.04   0.04   0.07    -0.02   0.04   0.00
  23   8     0.09  -0.12  -0.02     0.03   0.02   0.04    -0.03   0.04   0.02
  24   7    -0.01  -0.15   0.06    -0.00   0.02   0.07    -0.01   0.03  -0.00
  25   1    -0.01  -0.04   0.01    -0.01  -0.01   0.01    -0.00   0.01  -0.00
  26   1    -0.01  -0.05   0.02     0.00   0.01   0.03    -0.00   0.01  -0.00
  27   7     0.10  -0.18   0.07     0.10   0.11   0.11    -0.03   0.05  -0.00
  28   1     0.02  -0.06   0.03     0.03   0.03   0.03    -0.01   0.01  -0.00
  29   1     0.04  -0.05   0.02     0.03   0.03   0.03    -0.01   0.02   0.00
  30   6    -0.21   0.23   0.05    -0.02   0.02  -0.12     0.04  -0.03  -0.12
  31   8    -0.24   0.28   0.16    -0.00   0.05   0.10     0.12  -0.05   0.05
  32   7    -0.26   0.35   0.04     0.37  -0.03  -0.49    -0.23   0.33  -0.03
  33   1    -0.09   0.13   0.04     0.17  -0.00  -0.14    -0.07   0.14   0.03
  34   1    -0.08   0.10  -0.00     0.08  -0.00  -0.17    -0.05   0.08  -0.06
  35   7    -0.15   0.11  -0.06    -0.43   0.05  -0.03     0.24  -0.37  -0.42
  36   1    -0.04   0.03  -0.04    -0.10  -0.00  -0.07     0.02  -0.08  -0.14
  37   1    -0.04   0.01  -0.01    -0.18   0.01   0.05     0.09  -0.16  -0.12
  38   6     0.17  -0.05  -0.10     0.06   0.01   0.07     0.02   0.01   0.09
  39   8     0.16  -0.07  -0.13     0.04  -0.03   0.04    -0.06  -0.01   0.07
  40   7     0.20  -0.07  -0.10     0.04   0.03   0.06     0.07  -0.01   0.13
  41   1     0.05  -0.02  -0.03     0.00   0.01   0.01     0.01  -0.01   0.03
  42   1     0.07  -0.01  -0.02     0.01   0.01   0.02     0.04   0.01   0.04
  43   7     0.22  -0.04  -0.10     0.10   0.02   0.13     0.08   0.04   0.09
  44   1     0.06  -0.02  -0.03     0.04   0.03   0.05     0.03   0.01   0.02
  45   1     0.06  -0.01  -0.03     0.03   0.01   0.04     0.01   0.02   0.01
  46   6     0.06  -0.01  -0.02     0.02   0.01   0.09    -0.04   0.05   0.14
  47   8     0.06  -0.02  -0.04    -0.01  -0.02   0.04    -0.07  -0.01   0.07
  48   7     0.06  -0.01  -0.03     0.05   0.04   0.16    -0.02   0.07   0.25
  49   1     0.02  -0.01  -0.01     0.02   0.01   0.05    -0.01   0.01   0.06
  50   1     0.03   0.00   0.01     0.03   0.01   0.06    -0.01   0.02   0.07
  51   7     0.09  -0.00   0.00     0.01   0.03   0.08    -0.04   0.13   0.16
  52   1     0.02  -0.00  -0.01     0.01   0.01   0.03    -0.00   0.05   0.07
  53   1     0.02  -0.00  -0.00    -0.00   0.00   0.01    -0.01   0.03   0.03
                      4                      5                      6
                        a                      a                      a 
 Frequencies --    33.2417                35.9601                42.4478
 Red. masses --    12.2321                11.9832                11.7230
 Frc consts  --     0.0000                 0.0000                 0.0000
 IR Inten    --     0.9409                 4.3294                 1.6133
 Raman Activ --     0.0000                 0.0000                 0.0000
 Depolar     --     0.0000                 0.0000                 0.0000
 Atom AN      X      Y      Z        X      Y      Z        X      Y      Z
   1   8    -0.01  -0.15  -0.08    -0.09   0.10   0.08    -0.04   0.03  -0.05
   2   6    -0.01  -0.05  -0.01    -0.13   0.13   0.03    -0.01   0.00  -0.03
   3   1    -0.02  -0.02   0.00    -0.04   0.05   0.05     0.00  -0.00  -0.02
   4   1     0.02  -0.00  -0.01    -0.07   0.06  -0.01     0.00  -0.01  -0.00
   5   6    -0.03   0.00   0.04    -0.07   0.01  -0.10    -0.02   0.00  -0.00
   6   1    -0.00   0.00   0.01    -0.02  -0.01  -0.06     0.00  -0.01  -0.02
   7   1    -0.00   0.01   0.02    -0.04   0.01  -0.05    -0.00   0.03   0.00
   8   7    -0.12   0.00   0.06     0.08  -0.10  -0.05    -0.07  -0.07   0.08
   9   6    -0.16  -0.02   0.01     0.15  -0.12   0.02     0.04  -0.27   0.11
  10   1    -0.06  -0.01   0.01     0.07  -0.05   0.01    -0.01  -0.08   0.04
  11   1    -0.04  -0.01  -0.01     0.04  -0.02   0.03     0.00  -0.12   0.05
  12   1    -0.05  -0.01   0.00     0.05  -0.04  -0.01     0.06  -0.08   0.01
  13   6    -0.13   0.04   0.13     0.11  -0.21  -0.17    -0.02   0.05  -0.03
  14   1    -0.05   0.01   0.04     0.06  -0.08  -0.04    -0.02  -0.01   0.01
  15   1    -0.04   0.01   0.04     0.02  -0.07  -0.07     0.04   0.00  -0.04
  16   1    -0.03   0.01   0.05     0.01  -0.06  -0.06    -0.02   0.07  -0.02
  17   6    -0.12   0.00   0.06     0.12  -0.04   0.07    -0.26  -0.04   0.21
  18   1    -0.02   0.01   0.03     0.02  -0.00   0.01    -0.11   0.03   0.04
  19   1    -0.03  -0.01  -0.00     0.03   0.01   0.05    -0.09  -0.04   0.10
  20   1    -0.05   0.00   0.02     0.07  -0.03   0.03    -0.07  -0.02   0.07
  21   1     0.01  -0.04  -0.03    -0.01   0.03   0.01    -0.01   0.01  -0.00
  22   6     0.13   0.16   0.00    -0.08   0.00  -0.01    -0.07   0.10  -0.09
  23   8     0.00  -0.06  -0.07    -0.10  -0.01  -0.09    -0.14   0.00  -0.13
  24   7     0.14   0.15  -0.02    -0.08   0.13   0.06    -0.04   0.13  -0.10
  25   1     0.00  -0.01  -0.01    -0.02   0.05   0.01    -0.02   0.02  -0.03
  26   1     0.05   0.09   0.01    -0.02   0.04   0.02    -0.00   0.06  -0.02
  27   7     0.31   0.50   0.10    -0.09  -0.12  -0.00    -0.04   0.20  -0.08
  28   1     0.11   0.17   0.03    -0.02  -0.03   0.02     0.00   0.07  -0.02
  29   1     0.08   0.12   0.02    -0.02  -0.05  -0.01    -0.02   0.04  -0.02
  30   6     0.02  -0.04   0.00     0.04   0.06   0.05     0.03   0.03   0.01
  31   8    -0.17   0.07   0.03    -0.30   0.27   0.12     0.14  -0.03   0.03
  32   7     0.04  -0.13   0.03     0.19  -0.16   0.01    -0.06   0.17   0.03
  33   1    -0.03  -0.03   0.02    -0.01  -0.03   0.02     0.02   0.04  -0.00
  34   1     0.05  -0.06   0.00     0.10  -0.07   0.00    -0.01   0.04  -0.02
  35   7     0.23  -0.08  -0.06     0.31   0.05  -0.01    -0.01  -0.03  -0.03
  36   1     0.09  -0.04  -0.01     0.14  -0.02  -0.01    -0.04   0.01   0.00
  37   1     0.05   0.00  -0.02     0.05   0.06   0.01    -0.01  -0.02   0.00
  38   6     0.07  -0.07  -0.09     0.02   0.08  -0.06    -0.05   0.03   0.09
  39   8     0.14  -0.09  -0.11     0.04   0.13  -0.04    -0.03   0.04   0.11
  40   7     0.02  -0.07  -0.15    -0.03   0.01  -0.11    -0.18  -0.03   0.00
  41   1     0.00  -0.02  -0.05    -0.02  -0.00  -0.03    -0.07  -0.01  -0.01
  42   1    -0.01  -0.02  -0.03    -0.01   0.00  -0.03    -0.05  -0.00   0.01
  43   7     0.08  -0.08  -0.06     0.08   0.11  -0.08     0.05   0.09   0.17
  44   1     0.00  -0.02  -0.01     0.01   0.02  -0.03     0.01   0.04   0.05
  45   1     0.03  -0.03  -0.01     0.03   0.04  -0.01     0.04   0.04   0.07
  46   6    -0.10  -0.02   0.04    -0.05  -0.07   0.06     0.19  -0.10  -0.08
  47   8    -0.12   0.02   0.09     0.05  -0.15   0.02     0.31  -0.14  -0.10
  48   7    -0.08  -0.00   0.02    -0.08  -0.10   0.22     0.24  -0.09   0.08
  49   1    -0.02   0.01   0.01    -0.01  -0.05   0.07     0.10  -0.03   0.06
  50   1    -0.02  -0.00  -0.00    -0.05  -0.02   0.06     0.06  -0.02   0.03
  51   7    -0.13  -0.08   0.02    -0.13   0.02  -0.02     0.06  -0.10  -0.24
  52   1    -0.04  -0.03  -0.02    -0.06   0.01  -0.00     0.01  -0.02  -0.06
  53   1    -0.04  -0.03   0.00    -0.03   0.01  -0.03     0.02  -0.03  -0.08
                      7                      8                      9
                        a                      a                      a 
 Frequencies --    44.9701                48.1594                49.8561
 Red. masses --    13.0014                12.6447                13.0256
 Frc consts  --     0.0000                 0.0000                 0.0000
 IR Inten    --     2.0963                 9.5013                 5.2490
 Raman Activ --     0.0000                 0.0000                 0.0000
 Depolar     --     0.0000                 0.0000                 0.0000
 Atom AN      X      Y      Z        X      Y      Z        X      Y      Z
   1   8    -0.09   0.02  -0.03    -0.06   0.01  -0.15     0.02  -0.05   0.15
   2   6    -0.10   0.08  -0.01    -0.09   0.12  -0.10    -0.06  -0.04   0.03
   3   1    -0.03   0.03   0.02    -0.04   0.04   0.00    -0.03  -0.02   0.00
   4   1    -0.04   0.05  -0.02    -0.03   0.06  -0.05    -0.03  -0.02   0.01
   5   6    -0.08   0.00  -0.06    -0.07   0.08  -0.14    -0.02   0.03  -0.06
   6   1    -0.03  -0.01  -0.03    -0.01   0.01  -0.07     0.01   0.01  -0.01
   7   1    -0.03  -0.00  -0.02    -0.03   0.05  -0.04    -0.02   0.01  -0.04
   8   7    -0.00  -0.05  -0.04    -0.08  -0.03  -0.04     0.02   0.09  -0.13
   9   6    -0.04   0.01  -0.05    -0.05  -0.15  -0.04     0.13   0.08  -0.03
  10   1     0.01  -0.01  -0.01    -0.02  -0.06   0.00     0.04   0.05  -0.03
  11   1    -0.01   0.04  -0.01    -0.02  -0.05  -0.01     0.03  -0.02   0.01
  12   1    -0.04  -0.01  -0.02     0.00  -0.05  -0.03     0.08   0.04   0.01
  13   6    -0.02  -0.18  -0.02    -0.06  -0.05  -0.07     0.07   0.16  -0.23
  14   1     0.01  -0.05  -0.01    -0.01  -0.03  -0.01     0.03   0.06  -0.08
  15   1    -0.04  -0.05  -0.00    -0.01  -0.02  -0.04     0.04   0.06  -0.05
  16   1    -0.00  -0.07  -0.01    -0.02  -0.00  -0.02    -0.00   0.04  -0.09
  17   6     0.13  -0.02  -0.01    -0.10   0.02   0.11    -0.09   0.05  -0.16
  18   1     0.05  -0.01   0.01    -0.03   0.04   0.03    -0.06   0.01  -0.07
  19   1     0.05   0.02  -0.02    -0.03   0.01   0.04    -0.04  -0.00  -0.01
  20   1     0.04  -0.02   0.01    -0.03  -0.01   0.05    -0.01   0.03  -0.06
  21   1    -0.01   0.01  -0.02     0.02   0.01  -0.03     0.03  -0.00   0.06
  22   6    -0.02  -0.03   0.05     0.06   0.02  -0.02    -0.04  -0.02   0.03
  23   8    -0.14  -0.22   0.03     0.21   0.27   0.04    -0.12  -0.15  -0.03
  24   7     0.09   0.10   0.09    -0.14  -0.29  -0.12     0.03   0.14   0.10
  25   1     0.01   0.01   0.02    -0.03  -0.07  -0.03    -0.00   0.03   0.02
  26   1     0.04   0.07   0.03    -0.05  -0.12  -0.03     0.01   0.06   0.03
  27   7    -0.01   0.06   0.06     0.10   0.05   0.01    -0.04  -0.04   0.04
  28   1     0.02   0.05   0.02    -0.01  -0.03  -0.02     0.01   0.02   0.03
  29   1    -0.02  -0.01   0.01     0.06   0.08   0.02    -0.02  -0.04   0.00
  30   6     0.07   0.04  -0.01    -0.04  -0.10  -0.02    -0.11  -0.12  -0.03
  31   8     0.39  -0.17  -0.27    -0.00  -0.16  -0.18    -0.14  -0.14  -0.09
  32   7    -0.12   0.13   0.14    -0.13  -0.15   0.08    -0.17  -0.16   0.03
  33   1     0.01  -0.00   0.00    -0.04  -0.06   0.01    -0.05  -0.06  -0.00
  34   1    -0.08   0.07   0.08    -0.04  -0.03   0.05    -0.03  -0.05   0.01
  35   7    -0.12   0.22   0.16    -0.02  -0.01   0.05    -0.06  -0.11  -0.02
  36   1    -0.08   0.09   0.08    -0.01   0.00   0.04    -0.02  -0.02   0.01
  37   1     0.01   0.03   0.01     0.02   0.00  -0.01    -0.02  -0.02  -0.01
  38   6     0.08   0.05  -0.10     0.09   0.13   0.01     0.10  -0.03   0.07
  39   8     0.07   0.09  -0.08     0.24   0.16   0.03     0.32   0.09   0.22
  40   7     0.00  -0.04  -0.16     0.13   0.26   0.03    -0.06  -0.11  -0.06
  41   1    -0.02  -0.02  -0.04     0.07   0.08   0.02    -0.02  -0.03  -0.01
  42   1     0.00  -0.01  -0.04    -0.00   0.05  -0.00    -0.05  -0.05  -0.03
  43   7     0.19   0.12  -0.08    -0.10   0.04  -0.03     0.05  -0.06   0.03
  44   1     0.04   0.02  -0.03    -0.05  -0.00  -0.01    -0.02  -0.04  -0.00
  45   1     0.06   0.05  -0.01    -0.03  -0.02  -0.01     0.04  -0.00   0.04
  46   6    -0.07  -0.06   0.09     0.04  -0.04   0.13     0.06   0.10   0.05
  47   8    -0.20  -0.04   0.10     0.11  -0.06   0.16     0.24   0.26   0.30
  48   7     0.12   0.06   0.16    -0.05  -0.12   0.11    -0.02   0.06  -0.07
  49   1     0.03   0.04   0.04    -0.03  -0.05   0.02     0.03   0.04   0.02
  50   1     0.05  -0.00   0.02    -0.05  -0.03   0.01    -0.02   0.00  -0.05
  51   7    -0.13  -0.20   0.03     0.07   0.03   0.18    -0.08  -0.04  -0.09
  52   1    -0.01  -0.06   0.01     0.00   0.01   0.05    -0.05  -0.03  -0.08
  53   1    -0.05  -0.07   0.01     0.04   0.03   0.06    -0.01  -0.00  -0.02
                     10                     11                     12
                        a                      a                      a 
 Frequencies --    64.2023                65.7770                69.8553
 Red. masses --    12.1380                12.3854                12.8483
 Frc consts  --     0.0000                 0.0000                 0.0000
 IR Inten    --     2.5407                 1.5404                 1.8540
 Raman Activ --     0.0000                 0.0000                 0.0000
 Depolar     --     0.0000                 0.0000                 0.0000
 Atom AN      X      Y      Z        X      Y      Z        X      Y      Z
   1   8    -0.04   0.03   0.07    -0.01  -0.15   0.06     0.11  -0.12   0.24
   2   6     0.01  -0.08   0.04    -0.14   0.11   0.06    -0.01  -0.03   0.14
   3   1     0.02  -0.03  -0.02    -0.08   0.03   0.08    -0.02  -0.01   0.06
   4   1     0.01  -0.05   0.03    -0.05   0.08  -0.02    -0.02   0.01   0.03
   5   6    -0.01  -0.06   0.07    -0.08   0.13  -0.07     0.05   0.01   0.02
   6   1    -0.00  -0.01   0.03     0.00   0.03  -0.05     0.03   0.00   0.00
   7   1     0.00  -0.03   0.02    -0.04   0.07  -0.03    -0.00   0.01  -0.01
   8   7    -0.03  -0.02   0.05    -0.04   0.04   0.01     0.12   0.01   0.01
   9   6     0.06  -0.08   0.10    -0.01  -0.03   0.01     0.17  -0.01   0.06
  10   1     0.01  -0.01   0.02     0.03  -0.05   0.03     0.04   0.01   0.01
  11   1     0.01  -0.06   0.04    -0.01   0.04   0.02     0.04  -0.03   0.03
  12   1     0.06  -0.01   0.04    -0.03  -0.03  -0.04     0.07   0.01   0.02
  13   6     0.02   0.09  -0.04    -0.03  -0.04  -0.04     0.14   0.02  -0.07
  14   1    -0.00   0.03  -0.01     0.01  -0.03  -0.00     0.05   0.00  -0.02
  15   1     0.04   0.03  -0.02    -0.02  -0.02  -0.03     0.05   0.00  -0.03
  16   1    -0.01   0.05  -0.02    -0.01  -0.01  -0.02     0.03   0.01  -0.03
  17   6    -0.18  -0.04   0.04    -0.01   0.08   0.13     0.07   0.01   0.02
  18   1    -0.09  -0.01  -0.01     0.01   0.05   0.05     0.00   0.00  -0.00
  19   1    -0.07  -0.03   0.05     0.00   0.03   0.03     0.02   0.00   0.03
  20   1    -0.04  -0.00  -0.01    -0.01   0.00   0.06     0.04   0.00   0.00
  21   1    -0.04   0.00   0.01     0.04  -0.03  -0.00     0.03  -0.04   0.02
  22   6     0.05   0.05  -0.06    -0.03   0.08  -0.01    -0.19  -0.01   0.07
  23   8     0.05   0.03  -0.19    -0.10   0.01   0.14    -0.25  -0.05   0.15
  24   7     0.05   0.25   0.04     0.24   0.27   0.00    -0.30  -0.34  -0.06
  25   1    -0.00   0.07  -0.00     0.08   0.04   0.01    -0.07  -0.10  -0.01
  26   1     0.01   0.07   0.03     0.07   0.07  -0.04    -0.07  -0.07  -0.02
  27   7     0.07  -0.09  -0.03    -0.24   0.03  -0.16    -0.07   0.37   0.15
  28   1     0.02  -0.02   0.02    -0.05   0.03  -0.07    -0.03   0.09   0.01
  29   1     0.02  -0.06  -0.02    -0.11  -0.02  -0.04    -0.01   0.14   0.05
  30   6     0.01  -0.03  -0.03    -0.01  -0.10   0.04     0.03   0.01  -0.04
  31   8     0.10  -0.11  -0.17     0.04  -0.14   0.07     0.09  -0.03  -0.10
  32   7    -0.00  -0.08  -0.00    -0.01  -0.06   0.03    -0.01   0.03  -0.01
  33   1    -0.02  -0.02   0.01    -0.00  -0.01   0.01     0.01  -0.00  -0.01
  34   1    -0.06   0.02   0.05    -0.02  -0.00   0.01    -0.01   0.01   0.01
  35   7    -0.10   0.10   0.09    -0.07  -0.12   0.05     0.01   0.05  -0.01
  36   1    -0.00   0.01   0.02    -0.02  -0.03   0.00    -0.01   0.02   0.01
  37   1     0.02   0.01  -0.01    -0.01  -0.05   0.01     0.01   0.01  -0.01
  38   6    -0.04  -0.08  -0.12     0.16  -0.03   0.06     0.03  -0.06  -0.09
  39   8    -0.27  -0.08  -0.15     0.22  -0.05   0.05     0.04  -0.14  -0.18
  40   7     0.20  -0.13   0.06     0.22   0.03   0.09     0.06   0.05  -0.08
  41   1     0.04  -0.04   0.02     0.05   0.01   0.02     0.01   0.02  -0.04
  42   1     0.11  -0.03   0.01     0.05   0.00   0.02     0.01   0.02  -0.01
  43   7    -0.02  -0.06  -0.30     0.10  -0.08   0.05    -0.02  -0.09  -0.03
  44   1     0.03  -0.04  -0.10     0.02  -0.03   0.01    -0.00  -0.01   0.00
  45   1    -0.05  -0.01  -0.12     0.02  -0.04   0.01    -0.01  -0.04  -0.01
  46   6     0.02   0.09   0.12    -0.05  -0.00  -0.14    -0.01   0.07  -0.05
  47   8     0.18   0.00   0.05    -0.13  -0.13  -0.34     0.06   0.00  -0.13
  48   7    -0.12   0.00   0.26    -0.14  -0.06  -0.13    -0.06   0.04   0.06
  49   1    -0.04  -0.04   0.07    -0.08  -0.05  -0.07    -0.02  -0.01   0.02
  50   1    -0.09   0.01   0.05    -0.04   0.00  -0.00    -0.04   0.02   0.01
  51   7     0.00   0.32   0.10     0.12   0.20   0.04    -0.04   0.19  -0.09
  52   1    -0.02   0.11   0.06     0.04   0.08   0.06    -0.01   0.07   0.01
  53   1     0.01   0.09  -0.01     0.03   0.06   0.01    -0.01   0.05  -0.04
                     13                     14                     15
                        a                      a                      a 
 Frequencies --    74.9072                78.1946                91.9897
 Red. masses --    12.8932                13.0762                11.6843
 Frc consts  --     0.0000                 0.0000                 0.0000
 IR Inten    --     5.0998                 0.4988                15.9001
 Raman Activ --     0.0000                 0.0000                 0.0000
 Depolar     --     0.0000                 0.0000                 0.0000
 Atom AN      X      Y      Z        X      Y      Z        X      Y      Z
   1   8     0.04   0.02  -0.19     0.02   0.29  -0.19    -0.06   0.01   0.11
   2   6     0.12  -0.09  -0.14     0.13   0.07  -0.16     0.08  -0.28   0.05
   3   1     0.05  -0.03  -0.07     0.07   0.02  -0.09     0.06  -0.09  -0.07
   4   1     0.05  -0.05  -0.02     0.04  -0.01  -0.03     0.03  -0.15   0.06
   5   6     0.07  -0.08  -0.04     0.08   0.03  -0.06     0.02  -0.27   0.17
   6   1     0.01  -0.02  -0.00     0.01   0.01  -0.02    -0.02  -0.06   0.09
   7   1     0.03  -0.02   0.00     0.04   0.01  -0.00     0.03  -0.12   0.06
   8   7    -0.02  -0.07  -0.04     0.02   0.01  -0.03    -0.03  -0.14   0.05
   9   6    -0.00  -0.12  -0.03    -0.03  -0.04  -0.08    -0.05  -0.01   0.06
  10   1    -0.02  -0.03  -0.01    -0.02  -0.02  -0.01    -0.03   0.03  -0.01
  11   1    -0.00  -0.07  -0.01    -0.00  -0.02  -0.04    -0.01  -0.03   0.01
  12   1     0.03  -0.03   0.00    -0.01  -0.02  -0.03    -0.01   0.01   0.05
  13   6    -0.01   0.04  -0.02    -0.00   0.02   0.03    -0.04  -0.03   0.10
  14   1    -0.02   0.02  -0.01    -0.02  -0.00   0.02    -0.03   0.01   0.02
  15   1     0.02   0.01  -0.01     0.00   0.00  -0.00    -0.00  -0.00   0.04
  16   1    -0.00   0.03  -0.00     0.01   0.02   0.02    -0.01  -0.01   0.03
  17   6    -0.12  -0.08  -0.03     0.01   0.02   0.00    -0.06  -0.21  -0.14
  18   1    -0.05  -0.01  -0.02     0.01   0.01   0.01    -0.03  -0.10  -0.05
  19   1    -0.04  -0.04   0.00     0.00   0.00  -0.01    -0.02  -0.07  -0.03
  20   1    -0.04  -0.02  -0.01    -0.01   0.00   0.01    -0.01  -0.03  -0.07
  21   1    -0.01  -0.00  -0.04    -0.01   0.08   0.00    -0.03   0.00   0.07
  22   6    -0.09  -0.01   0.14    -0.03  -0.10   0.04    -0.08   0.10   0.02
  23   8    -0.21  -0.16   0.41    -0.13  -0.28  -0.00    -0.02   0.21  -0.07
  24   7     0.21   0.04   0.07    -0.07  -0.19   0.01    -0.20   0.14   0.08
  25   1     0.07  -0.02   0.04    -0.03  -0.05  -0.00    -0.06   0.06   0.01
  26   1     0.07   0.04  -0.03    -0.00   0.00   0.02    -0.06   0.02   0.04
  27   7    -0.32   0.12  -0.03     0.12   0.16   0.13    -0.05  -0.04   0.07
  28   1    -0.06   0.06  -0.06     0.04   0.05   0.04    -0.02  -0.02   0.04
  29   1    -0.15   0.03   0.01     0.03   0.03   0.03     0.01  -0.01   0.01
  30   6    -0.00   0.09  -0.04    -0.04  -0.04   0.05     0.03   0.05  -0.06
  31   8    -0.09   0.16  -0.04    -0.06  -0.03   0.07     0.05   0.04  -0.15
  32   7     0.05   0.02  -0.06     0.02  -0.08   0.00    -0.01   0.04  -0.01
  33   1    -0.02   0.01  -0.00    -0.04   0.01   0.03     0.00  -0.01  -0.02
  34   1     0.01   0.01  -0.00    -0.04   0.01   0.03     0.00   0.01   0.01
  35   7     0.08   0.11  -0.05    -0.09  -0.03   0.07     0.05   0.12  -0.02
  36   1     0.04   0.02  -0.01     0.02  -0.03  -0.01     0.01   0.04   0.01
  37   1     0.01   0.04  -0.01    -0.00  -0.02   0.00     0.02   0.04  -0.01
  38   6    -0.02   0.05  -0.05     0.05   0.04   0.10     0.16   0.12   0.03
  39   8    -0.06   0.03  -0.09    -0.08   0.23   0.30     0.28   0.19   0.10
  40   7     0.13   0.13   0.05     0.06  -0.29   0.14     0.09   0.12  -0.03
  41   1     0.04   0.03   0.03    -0.02  -0.10   0.07     0.02   0.03  -0.01
  42   1     0.04   0.02   0.01     0.07  -0.09   0.01     0.00   0.02  -0.01
  43   7    -0.12  -0.00  -0.14     0.20   0.15  -0.14     0.14   0.12   0.01
  44   1    -0.02  -0.00  -0.04     0.06  -0.02  -0.08     0.01   0.02  -0.00
  45   1    -0.06  -0.02  -0.06     0.05   0.10  -0.04     0.05   0.04   0.02
  46   6     0.08  -0.03   0.09    -0.05   0.02  -0.07    -0.06  -0.05  -0.10
  47   8     0.10   0.04   0.21    -0.02  -0.06  -0.16    -0.05  -0.07  -0.11
  48   7     0.03  -0.08  -0.09    -0.15  -0.05  -0.05    -0.16  -0.12  -0.19
  49   1    -0.00  -0.01  -0.03    -0.05  -0.04  -0.02    -0.06  -0.04  -0.07
  50   1     0.01  -0.03  -0.04    -0.06  -0.00   0.00    -0.05  -0.03  -0.05
  51   7     0.14  -0.10   0.16     0.02   0.17   0.01     0.02   0.02  -0.02
  52   1     0.03  -0.04   0.01    -0.00   0.06   0.02    -0.00   0.01  -0.00
  53   1     0.04  -0.02   0.08     0.00   0.04  -0.01     0.01   0.02   0.01
                     16                     17                     18
                        a                      a                      a 
 Frequencies --    95.0610               107.0592               114.2814
 Red. masses --    12.6824                11.5768                13.3087
 Frc consts  --     0.0000                 0.0000                 0.0000
 IR Inten    --     6.8322                 3.9985                 2.2063
 Raman Activ --     0.0000                 0.0000                 0.0000
 Depolar     --     0.0000                 0.0000                 0.0000
 Atom AN      X      Y      Z        X      Y      Z        X      Y      Z
   1   8     0.10  -0.02  -0.10     0.13  -0.00  -0.08    -0.05  -0.11   0.04
   2   6     0.12  -0.09  -0.09     0.10   0.00  -0.09    -0.07  -0.00   0.06
   3   1     0.04  -0.03  -0.06     0.02  -0.00  -0.03    -0.03   0.00   0.04
   4   1     0.05  -0.05  -0.01     0.03  -0.01  -0.02    -0.02   0.02   0.00
   5   6     0.09  -0.02  -0.02     0.10   0.05  -0.09    -0.06  -0.03   0.03
   6   1     0.04  -0.00  -0.00     0.05   0.01  -0.04    -0.02  -0.01   0.00
   7   1     0.04   0.00   0.00     0.02   0.04  -0.02    -0.02  -0.01   0.00
   8   7    -0.02   0.01  -0.02     0.04  -0.01  -0.02    -0.01  -0.06   0.05
   9   6    -0.08  -0.02  -0.08     0.14  -0.20   0.02    -0.02  -0.03   0.04
  10   1    -0.03  -0.02  -0.01     0.02  -0.06   0.01     0.01  -0.02   0.02
  11   1    -0.02   0.01  -0.04     0.03  -0.10   0.02    -0.01   0.02   0.02
  12   1    -0.03  -0.01  -0.03     0.09  -0.06  -0.01    -0.03  -0.02  -0.00
  13   6    -0.05   0.08   0.08     0.08   0.10  -0.12    -0.02  -0.12   0.03
  14   1    -0.04   0.02   0.03     0.02   0.02  -0.02     0.01  -0.04   0.01
  15   1    -0.01   0.02   0.02     0.06   0.02  -0.06    -0.02  -0.04   0.01
  16   1     0.00   0.04   0.04     0.01   0.07  -0.04    -0.01  -0.04   0.01
  17   6    -0.06  -0.00  -0.05    -0.18   0.01   0.11     0.05  -0.04   0.07
  18   1     0.00   0.01   0.00    -0.08   0.05   0.02     0.02  -0.01   0.03
  19   1    -0.01  -0.02  -0.04    -0.07  -0.03   0.07     0.02   0.00   0.01
  20   1    -0.05   0.01  -0.01    -0.05  -0.00   0.04     0.01  -0.02   0.03
  21   1     0.02  -0.01  -0.02     0.03  -0.00  -0.02     0.02  -0.02   0.03
  22   6     0.05  -0.04   0.17     0.08  -0.07   0.06     0.08  -0.06  -0.08
  23   8     0.08   0.00   0.24     0.10  -0.08   0.04     0.04  -0.14  -0.02
  24   7     0.13   0.00   0.18     0.10  -0.03   0.08     0.16  -0.09  -0.11
  25   1     0.04  -0.00   0.05     0.03  -0.00   0.02     0.05  -0.03  -0.02
  26   1     0.03  -0.01   0.03     0.03  -0.00   0.02     0.05  -0.01  -0.04
  27   7    -0.03  -0.15   0.12     0.09  -0.14   0.06     0.06   0.03  -0.11
  28   1    -0.01  -0.05   0.03     0.02  -0.04   0.03     0.02   0.01  -0.05
  29   1    -0.02  -0.04   0.03     0.03  -0.05   0.01    -0.00   0.01  -0.02
  30   6    -0.08  -0.05  -0.06     0.11   0.06   0.01     0.03   0.16  -0.16
  31   8    -0.17  -0.03  -0.17     0.24   0.02   0.05    -0.00   0.19  -0.30
  32   7    -0.13  -0.17   0.03     0.06   0.22   0.00    -0.01   0.09  -0.08
  33   1    -0.04  -0.08  -0.01     0.09   0.04  -0.03     0.00  -0.01  -0.05
  34   1     0.00  -0.07   0.02     0.04   0.04  -0.05     0.02   0.01  -0.01
  35   7     0.03   0.02  -0.03     0.03   0.02  -0.01     0.12   0.29  -0.11
  36   1     0.01   0.01   0.03    -0.05   0.04   0.01     0.03   0.09   0.02
  37   1     0.00   0.04  -0.01    -0.02   0.00   0.02     0.03   0.11  -0.04
  38   6    -0.01   0.04  -0.02    -0.04   0.00  -0.00    -0.06  -0.09   0.16
  39   8     0.08  -0.00  -0.07     0.08  -0.05  -0.04     0.18   0.07   0.38
  40   7    -0.16   0.08  -0.14    -0.19   0.06  -0.12    -0.14  -0.15   0.12
  41   1    -0.04   0.02  -0.05    -0.03   0.03  -0.04    -0.01  -0.04   0.05
  42   1    -0.07   0.03  -0.03    -0.08   0.03  -0.02    -0.05  -0.06   0.02
  43   7     0.03   0.06   0.14    -0.05  -0.02   0.15    -0.28  -0.21  -0.04
  44   1    -0.03   0.02   0.05    -0.01   0.03   0.07    -0.06  -0.06  -0.02
  45   1     0.03   0.01   0.06     0.01  -0.01   0.06    -0.06  -0.03   0.00
  46   6     0.01   0.06  -0.05    -0.23   0.01   0.00    -0.01   0.07  -0.00
  47   8    -0.01  -0.12  -0.31    -0.13   0.03   0.06    -0.01   0.03  -0.07
  48   7     0.17   0.15   0.38    -0.42  -0.09  -0.10     0.00   0.08   0.07
  49   1     0.04   0.00   0.10    -0.11  -0.03  -0.02    -0.02   0.01  -0.00
  50   1     0.02   0.05   0.10    -0.13  -0.02  -0.02    -0.02   0.02  -0.00
  51   7    -0.08   0.21  -0.16    -0.23   0.08   0.02     0.02   0.15   0.02
  52   1    -0.01   0.09   0.02    -0.08   0.02  -0.00     0.00   0.05   0.02
  53   1    -0.03   0.04  -0.08    -0.05   0.03   0.01     0.00   0.03  -0.01
                     19                     20                     21
                        a                      a                      a 
 Frequencies --   124.0077               131.1164               137.4409
 Red. masses --    11.7488                12.2471                12.5128
 Frc consts  --     0.0000                 0.0000                 0.0000
 IR Inten    --     9.9094                 5.9552                 5.0429
 Raman Activ --     0.0000                 0.0000                 0.0000
 Depolar     --     0.0000                 0.0000                 0.0000
 Atom AN      X      Y      Z        X      Y      Z        X      Y      Z
   1   8    -0.12  -0.05   0.04    -0.10  -0.11  -0.10    -0.14   0.01  -0.20
   2   6    -0.07  -0.02   0.09    -0.08   0.05   0.02    -0.01   0.03  -0.02
   3   1    -0.01   0.00   0.04    -0.03   0.02   0.05     0.02   0.02   0.02
   4   1    -0.02   0.01   0.02    -0.02   0.06  -0.02     0.01   0.04  -0.02
   5   6    -0.08  -0.10   0.13    -0.08   0.01   0.03    -0.06  -0.14   0.10
   6   1    -0.05  -0.02   0.06    -0.03   0.00   0.01    -0.06  -0.04   0.03
   7   1    -0.02  -0.07   0.04    -0.02  -0.01   0.01     0.00  -0.07   0.04
   8   7     0.02  -0.04   0.05    -0.04   0.00   0.02     0.02  -0.17   0.10
   9   6     0.17   0.01   0.18    -0.17   0.12  -0.06     0.02  -0.11   0.11
  10   1     0.06   0.03   0.02    -0.05   0.04  -0.02    -0.01  -0.01   0.01
  11   1     0.04  -0.03   0.08    -0.04   0.06  -0.05     0.01  -0.05   0.02
  12   1     0.08   0.02   0.07    -0.08   0.04  -0.00     0.02  -0.02   0.05
  13   6     0.09   0.02  -0.14    -0.10  -0.11   0.15     0.03  -0.18   0.03
  14   1     0.05   0.00  -0.04    -0.03  -0.03   0.04     0.01  -0.07   0.02
  15   1     0.05   0.00  -0.05    -0.06  -0.03   0.06     0.02  -0.06  -0.01
  16   1    -0.01   0.02  -0.07    -0.00  -0.06   0.06    -0.00  -0.03   0.00
  17   6    -0.10  -0.07   0.00     0.19   0.01  -0.04     0.06  -0.15   0.10
  18   1    -0.11  -0.04  -0.06     0.11  -0.02   0.02    -0.02  -0.06  -0.00
  19   1    -0.05  -0.01   0.09     0.07   0.04  -0.07     0.01  -0.01   0.08
  20   1     0.05  -0.01  -0.04     0.04  -0.00  -0.00     0.08  -0.05   0.01
  21   1    -0.04  -0.02  -0.01    -0.02  -0.03  -0.05    -0.04   0.00  -0.05
  22   6     0.13  -0.02  -0.06     0.01  -0.02   0.03    -0.01  -0.10  -0.04
  23   8     0.17   0.03   0.16    -0.00  -0.05   0.07    -0.11  -0.29  -0.16
  24   7     0.23  -0.20  -0.18     0.07  -0.02   0.02     0.02   0.01   0.02
  25   1     0.09  -0.05  -0.03     0.02  -0.02   0.01    -0.02   0.00  -0.01
  26   1     0.06  -0.06  -0.08     0.02  -0.00  -0.00     0.02   0.06   0.03
  27   7     0.00   0.08  -0.18    -0.02  -0.00   0.01     0.11  -0.03   0.04
  28   1    -0.01   0.01  -0.10    -0.00  -0.00  -0.01     0.03  -0.00   0.03
  29   1    -0.03   0.06  -0.02    -0.02  -0.01   0.00     0.02  -0.06  -0.01
  30   6    -0.06  -0.03  -0.05     0.02   0.01  -0.03    -0.02  -0.07   0.06
  31   8    -0.13  -0.01  -0.14     0.06  -0.00  -0.07    -0.03  -0.07   0.14
  32   7    -0.06  -0.14  -0.00    -0.03   0.04   0.01    -0.03  -0.03   0.05
  33   1    -0.07  -0.03   0.02     0.04  -0.02  -0.03     0.04  -0.03  -0.01
  34   1    -0.04  -0.02   0.04     0.04  -0.02  -0.03     0.04  -0.04  -0.03
  35   7     0.01   0.05  -0.00     0.04   0.04  -0.02    -0.03  -0.16   0.01
  36   1     0.04  -0.01   0.00    -0.04   0.04   0.04    -0.06  -0.02   0.02
  37   1     0.03   0.02  -0.03    -0.02   0.04   0.02    -0.05  -0.03   0.04
  38   6    -0.01   0.07   0.04    -0.03  -0.01  -0.01    -0.02   0.11  -0.06
  39   8    -0.24   0.01  -0.05    -0.11  -0.10  -0.10     0.10   0.07  -0.12
  40   7    -0.06  -0.05   0.01    -0.12  -0.03  -0.07    -0.01   0.26  -0.08
  41   1    -0.04  -0.02   0.01    -0.05  -0.01  -0.03     0.01   0.08  -0.03
  42   1     0.02  -0.00   0.01    -0.03   0.01  -0.01    -0.05   0.06  -0.02
  43   7     0.34   0.29   0.17     0.17   0.10   0.17    -0.15   0.03   0.03
  44   1     0.06   0.05   0.04     0.04   0.04   0.06    -0.05   0.03   0.02
  45   1     0.09   0.09   0.04     0.06   0.03   0.06    -0.04  -0.03   0.01
  46   6    -0.06   0.04  -0.01     0.11   0.02   0.00     0.05   0.22  -0.03
  47   8    -0.14   0.08   0.00     0.51   0.04   0.15    -0.00   0.27  -0.04
  48   7    -0.02   0.08  -0.10    -0.28  -0.24  -0.09     0.07   0.26  -0.13
  49   1    -0.02   0.03  -0.04    -0.04  -0.10   0.02     0.02   0.08  -0.04
  50   1     0.01   0.01  -0.02    -0.14  -0.04  -0.03     0.05   0.07  -0.01
  51   7    -0.01  -0.01   0.04     0.04   0.22  -0.08     0.13   0.23   0.05
  52   1     0.01  -0.01   0.01    -0.05   0.07  -0.04     0.04   0.06   0.01
  53   1    -0.01  -0.01   0.03     0.04   0.09  -0.03     0.02   0.04   0.01
                     22                     23                     24
                        a                      a                      a 
 Frequencies --   140.9695               144.5468               150.1646
 Red. masses --    12.8393                11.9815                 3.8242
 Frc consts  --     0.0000                 0.0000                 0.0000
 IR Inten    --    15.3998                11.4728                 0.8803
 Raman Activ --     0.0000                 0.0000                 0.0000
 Depolar     --     0.0000                 0.0000                 0.0000
 Atom AN      X      Y      Z        X      Y      Z        X      Y      Z
   1   8    -0.05   0.01  -0.23     0.16  -0.02   0.07    -0.03   0.06  -0.05
   2   6     0.02   0.07  -0.08     0.05  -0.02  -0.05     0.01   0.03  -0.01
   3   1     0.02   0.03   0.01    -0.00  -0.01  -0.02     0.01   0.01  -0.01
   4   1     0.01   0.05  -0.04     0.00  -0.02  -0.01     0.00   0.01  -0.00
   5   6    -0.00  -0.04  -0.02     0.11   0.08  -0.17    -0.01  -0.00   0.02
   6   1    -0.02  -0.02  -0.02     0.07   0.01  -0.09    -0.02   0.00   0.01
   7   1     0.01  -0.01   0.00     0.01   0.08  -0.06     0.00  -0.01   0.01
   8   7     0.02  -0.13   0.05     0.04  -0.04  -0.04     0.00   0.01   0.00
   9   6    -0.01  -0.16   0.01    -0.02  -0.18  -0.11     0.03   0.02   0.03
  10   1    -0.01  -0.05   0.01    -0.00  -0.09   0.00     0.01   0.01   0.00
  11   1     0.00  -0.05  -0.01    -0.00  -0.02  -0.04     0.01  -0.00   0.01
  12   1     0.00  -0.05   0.00    -0.03  -0.07  -0.08     0.02   0.01   0.01
  13   6     0.02  -0.17   0.03     0.01  -0.05   0.01     0.02   0.02  -0.03
  14   1     0.01  -0.07   0.02    -0.00  -0.02   0.01     0.01   0.00  -0.01
  15   1     0.00  -0.06  -0.01    -0.00  -0.02   0.00     0.01   0.00  -0.01
  16   1     0.01  -0.04   0.01     0.01  -0.01   0.01    -0.00   0.01  -0.01
  17   6     0.07  -0.08   0.16     0.02   0.02   0.14    -0.01   0.01  -0.01
  18   1     0.02  -0.01   0.05     0.07   0.07   0.09    -0.03  -0.01  -0.02
  19   1     0.02  -0.00   0.05     0.02  -0.02  -0.03    -0.01   0.01   0.03
  20   1     0.03  -0.05   0.06    -0.07  -0.02   0.10     0.02   0.00  -0.01
  21   1    -0.01   0.01  -0.05     0.03  -0.01   0.01    -0.01   0.02  -0.01
  22   6    -0.02   0.14   0.12    -0.08   0.03  -0.02     0.00   0.03   0.02
  23   8     0.11   0.40   0.21    -0.10  -0.01  -0.20     0.03   0.09   0.05
  24   7    -0.09   0.04   0.08    -0.19   0.15   0.07    -0.01  -0.01  -0.00
  25   1    -0.02   0.02   0.03    -0.07   0.04   0.01     0.00   0.00   0.00
  26   1    -0.05  -0.05   0.00    -0.05   0.04   0.05    -0.01  -0.02  -0.01
  27   7    -0.14  -0.04   0.06     0.03  -0.04   0.09    -0.03   0.02  -0.00
  28   1    -0.05  -0.02   0.00     0.02   0.00   0.07    -0.02  -0.01  -0.01
  29   1    -0.01   0.05   0.03     0.04  -0.03   0.01    -0.01   0.01   0.00
  30   6     0.01   0.00   0.00    -0.06   0.02  -0.11    -0.02  -0.01   0.00
  31   8     0.02  -0.01   0.01    -0.12   0.04  -0.26    -0.04  -0.00  -0.00
  32   7     0.04  -0.00  -0.03    -0.11  -0.11  -0.01    -0.20   0.09   0.14
  33   1    -0.04   0.04   0.03    -0.03  -0.07  -0.03     0.28  -0.20  -0.20
  34   1    -0.06   0.04   0.03     0.01  -0.05   0.01     0.33  -0.23  -0.23
  35   7    -0.04   0.01   0.02     0.08   0.14  -0.06     0.17  -0.11  -0.11
  36   1     0.05  -0.03  -0.04     0.01   0.05   0.04    -0.35   0.22   0.25
  37   1     0.04  -0.03  -0.03     0.01   0.08  -0.02    -0.29   0.19   0.20
  38   6     0.05  -0.15  -0.01    -0.01  -0.06   0.09     0.03  -0.04  -0.00
  39   8     0.02  -0.10   0.07    -0.17  -0.21  -0.05    -0.06  -0.01   0.03
  40   7     0.05  -0.25   0.02     0.01  -0.02   0.11     0.14  -0.10   0.06
  41   1     0.01  -0.07   0.00    -0.02  -0.01   0.00     0.01  -0.04   0.02
  42   1     0.04  -0.06   0.01     0.02   0.01   0.04     0.02  -0.06  -0.01
  43   7     0.09  -0.12  -0.09     0.18   0.04   0.28     0.04  -0.05  -0.12
  44   1     0.03  -0.05  -0.04     0.03   0.02   0.09     0.08   0.03  -0.01
  45   1     0.02  -0.02  -0.03     0.04  -0.00   0.07     0.02   0.03  -0.02
  46   6    -0.04   0.15  -0.06     0.02   0.06   0.04    -0.02  -0.01  -0.00
  47   8     0.04   0.27   0.08    -0.12   0.11   0.07    -0.05  -0.02  -0.02
  48   7     0.02   0.21  -0.11     0.05   0.08  -0.18     0.01   0.01   0.01
  49   1     0.04   0.09   0.01    -0.03   0.04  -0.09     0.02   0.01   0.02
  50   1     0.02   0.04  -0.05     0.04   0.01  -0.05     0.03   0.01   0.03
  51   7    -0.20  -0.00  -0.25     0.20   0.02   0.24    -0.02  -0.03  -0.00
  52   1    -0.05  -0.01  -0.08     0.06  -0.01   0.04    -0.01  -0.01  -0.01
  53   1    -0.04   0.01  -0.04     0.04  -0.01   0.07    -0.01  -0.01  -0.01
                     25                     26                     27
                        a                      a                      a 
 Frequencies --   168.9859               190.0901               225.6656
 Red. masses --    10.3331                12.5914                 4.9271
 Frc consts  --     0.0000                 0.0000                 0.0000
 IR Inten    --    10.8373                 5.6140                 1.7781
 Raman Activ --     0.0000                 0.0000                 0.0000
 Depolar     --     0.0000                 0.0000                 0.0000
 Atom AN      X      Y      Z        X      Y      Z        X      Y      Z
   1   8    -0.13  -0.02  -0.46    -0.01  -0.06  -0.07    -0.20  -0.09  -0.27
   2   6     0.04   0.20  -0.07    -0.00   0.02  -0.01    -0.01  -0.15  -0.07
   3   1     0.02   0.08   0.05    -0.01   0.01   0.02    -0.00  -0.06  -0.09
   4   1     0.05   0.13  -0.06     0.01   0.02  -0.01     0.07  -0.08   0.01
   5   6    -0.06   0.00   0.15    -0.00   0.01   0.01    -0.07  -0.00   0.12
   6   1    -0.09   0.01   0.08    -0.00   0.00   0.00    -0.02   0.01   0.06
   7   1     0.03  -0.07   0.07     0.00  -0.00   0.00    -0.02  -0.02   0.03
   8   7     0.04   0.11   0.04     0.01   0.01   0.00     0.03   0.07   0.06
   9   6     0.11   0.18   0.12    -0.00   0.01  -0.00     0.17   0.11   0.18
  10   1    -0.03   0.13  -0.03    -0.02   0.02  -0.01     0.16  -0.04   0.09
  11   1     0.03  -0.06   0.03     0.00  -0.02  -0.01     0.04   0.16   0.11
  12   1     0.11   0.09   0.11     0.02   0.01   0.01    -0.03  -0.01  -0.02
  13   6     0.07   0.11  -0.06     0.00   0.01   0.01     0.10   0.05  -0.15
  14   1     0.02  -0.00   0.01    -0.00  -0.00   0.01     0.12   0.12  -0.16
  15   1     0.04   0.02  -0.06     0.00  -0.00  -0.00     0.00   0.06   0.09
  16   1     0.01   0.08  -0.02     0.00   0.01   0.01    -0.01  -0.14  -0.11
  17   6     0.01   0.07  -0.07     0.03   0.02   0.00     0.01   0.07   0.10
  18   1    -0.14  -0.05  -0.13     0.00  -0.00  -0.00     0.31   0.14   0.26
  19   1    -0.03   0.07   0.15     0.01   0.01   0.01     0.07  -0.11  -0.34
  20   1     0.18   0.04  -0.11     0.02   0.00  -0.00    -0.37   0.02   0.18
  21   1    -0.02  -0.00  -0.12     0.00  -0.02  -0.03    -0.06  -0.02  -0.04
  22   6    -0.08   0.02   0.04     0.00  -0.07  -0.02    -0.03  -0.00   0.01
  23   8    -0.08   0.02  -0.06    -0.05  -0.18  -0.09    -0.03   0.00  -0.01
  24   7    -0.14   0.09   0.09     0.04  -0.00   0.01    -0.05  -0.01   0.01
  25   1    -0.06   0.01   0.01     0.00  -0.01  -0.00    -0.00   0.01   0.00
  26   1    -0.05   0.01   0.04     0.02   0.03   0.01    -0.01   0.00   0.00
  27   7    -0.01  -0.03   0.11     0.10  -0.03   0.03     0.01   0.01   0.04
  28   1    -0.00  -0.00   0.05     0.02  -0.02   0.03    -0.01  -0.02   0.01
  29   1     0.02  -0.02   0.02     0.02  -0.05  -0.01    -0.00  -0.01   0.00
  30   6    -0.00   0.02  -0.05    -0.02   0.01  -0.05     0.00   0.00  -0.00
  31   8    -0.01   0.03  -0.11    -0.04   0.02  -0.10    -0.00   0.00  -0.00
  32   7    -0.01  -0.02  -0.03    -0.03  -0.03  -0.01    -0.00   0.00   0.00
  33   1    -0.03   0.00   0.01    -0.02  -0.01  -0.00     0.00  -0.00  -0.00
  34   1    -0.03   0.02   0.03    -0.01  -0.00   0.01     0.00  -0.00  -0.00
  35   7     0.02   0.09  -0.01     0.03   0.08  -0.01     0.00   0.00   0.00
  36   1     0.05  -0.00  -0.01     0.03   0.01   0.00     0.00  -0.00  -0.00
  37   1     0.04   0.02  -0.04     0.03   0.03  -0.02     0.00   0.00  -0.00
  38   6     0.04  -0.12   0.04     0.07   0.08   0.16     0.01   0.00  -0.00
  39   8     0.09  -0.18   0.01    -0.12  -0.06  -0.00     0.01   0.01   0.00
  40   7    -0.02  -0.06   0.00     0.42   0.30   0.40     0.00   0.01  -0.00
  41   1    -0.00  -0.01  -0.02     0.10   0.08   0.09     0.00   0.00  -0.00
  42   1    -0.01   0.00   0.02     0.11   0.07   0.09    -0.00   0.00  -0.00
  43   7     0.02  -0.16   0.16    -0.04   0.01   0.15    -0.01  -0.00  -0.00
  44   1    -0.01  -0.03   0.06     0.02   0.02   0.05    -0.00  -0.00  -0.00
  45   1     0.02  -0.06   0.06    -0.06  -0.04  -0.00     0.00  -0.00   0.00
  46   6     0.01  -0.09   0.02    -0.09  -0.03  -0.10     0.00  -0.02  -0.00
  47   8    -0.07  -0.15  -0.05     0.06   0.02   0.01    -0.00  -0.02  -0.01
  48   7     0.02  -0.10   0.05    -0.05  -0.00   0.05     0.00  -0.02   0.02
  49   1    -0.03  -0.05  -0.02     0.03   0.01   0.06    -0.00  -0.01   0.00
  50   1    -0.00  -0.02   0.01    -0.03  -0.01  -0.02    -0.00  -0.00   0.00
  51   7     0.11  -0.03   0.14    -0.33  -0.14  -0.36     0.01  -0.01   0.01
  52   1     0.03  -0.00   0.05    -0.09  -0.04  -0.10     0.00  -0.00   0.00
  53   1     0.02  -0.02   0.02    -0.07  -0.02  -0.09     0.00  -0.00   0.00
                     28                     29                     30
                        a                      a                      a 
 Frequencies --   259.6600               271.1880               288.8379
 Red. masses --     8.6690                 3.7166                 6.2499
 Frc consts  --     0.0000                 0.0000                 0.0000
 IR Inten    --    20.6027               161.6808                 5.3207
 Raman Activ --     0.0000                 0.0000                 0.0000
 Depolar     --     0.0000                 0.0000                 0.0000
 Atom AN      X      Y      Z        X      Y      Z        X      Y      Z
   1   8     0.05   0.50   0.13    -0.02  -0.20  -0.04    -0.14   0.39   0.14
   2   6     0.06   0.10  -0.11    -0.03  -0.05   0.04    -0.08   0.18   0.03
   3   1     0.06   0.02  -0.10    -0.03  -0.01   0.04     0.01   0.06   0.00
   4   1    -0.01  -0.05   0.01     0.00   0.01  -0.00    -0.07   0.04   0.02
   5   6    -0.03  -0.02  -0.01     0.01   0.01  -0.01    -0.07  -0.06   0.01
   6   1    -0.04  -0.01  -0.00     0.02   0.01  -0.00    -0.08  -0.02   0.02
   7   1     0.02  -0.02   0.02    -0.01   0.01  -0.01    -0.01  -0.07   0.01
   8   7    -0.11  -0.04   0.02     0.04   0.01  -0.02     0.01  -0.06  -0.02
   9   6    -0.02   0.11   0.11     0.01  -0.05  -0.06     0.01  -0.10  -0.03
  10   1     0.19  -0.09   0.10    -0.08   0.03  -0.04    -0.19   0.12  -0.11
  11   1    -0.02   0.27   0.11     0.01  -0.12  -0.05     0.01  -0.30  -0.06
  12   1    -0.17  -0.04  -0.08     0.07   0.02   0.03     0.20   0.06   0.14
  13   6    -0.09  -0.14  -0.05     0.03   0.06   0.02     0.00   0.10   0.05
  14   1     0.05   0.03  -0.10    -0.03  -0.03   0.06    -0.10  -0.07   0.13
  15   1    -0.08  -0.01   0.08     0.04  -0.00  -0.05     0.08  -0.02  -0.13
  16   1    -0.04  -0.17  -0.05     0.02   0.09   0.03     0.02   0.22   0.07
  17   6    -0.15  -0.06  -0.03     0.07   0.02   0.01     0.04  -0.09  -0.12
  18   1    -0.10  -0.04  -0.05     0.04   0.01   0.02     0.23   0.03   0.13
  19   1    -0.06  -0.01   0.07     0.02   0.01  -0.02     0.06  -0.10  -0.30
  20   1     0.02  -0.01  -0.04     0.00   0.00   0.02    -0.24  -0.01   0.05
  21   1    -0.04   0.12   0.05     0.01  -0.05  -0.01    -0.06   0.09   0.03
  22   6    -0.00  -0.03  -0.01    -0.05  -0.02  -0.00     0.05  -0.02  -0.01
  23   8     0.00  -0.03   0.03    -0.00   0.05   0.01     0.04  -0.03   0.04
  24   7     0.02  -0.06  -0.02    -0.02   0.00   0.01     0.06  -0.03  -0.02
  25   1     0.04   0.05   0.00     0.02   0.05   0.01    -0.00   0.00  -0.02
  26   1     0.03   0.05  -0.00     0.04   0.14   0.02     0.02   0.02   0.01
  27   7     0.08   0.15  -0.00     0.20   0.26   0.08    -0.02   0.02  -0.08
  28   1    -0.16  -0.22  -0.09    -0.41  -0.57  -0.15     0.01   0.03  -0.04
  29   1    -0.11  -0.14  -0.03    -0.22  -0.36  -0.07    -0.02   0.03  -0.01
  30   6     0.00  -0.00  -0.02     0.01  -0.00  -0.00    -0.00  -0.00  -0.01
  31   8    -0.00   0.00  -0.02     0.00   0.00   0.01    -0.00   0.00  -0.01
  32   7    -0.01   0.00  -0.00    -0.01   0.01   0.01    -0.01   0.00  -0.00
  33   1     0.00  -0.00  -0.01     0.02  -0.01  -0.01     0.00  -0.00  -0.00
  34   1     0.00  -0.00  -0.00     0.02  -0.02  -0.02    -0.00   0.00  -0.00
  35   7    -0.00   0.03   0.00    -0.02   0.00   0.01     0.00   0.02   0.00
  36   1     0.04  -0.01  -0.01     0.03  -0.02  -0.02     0.02  -0.00  -0.00
  37   1     0.03   0.00  -0.02     0.01  -0.01  -0.01     0.01   0.00  -0.01
  38   6     0.08  -0.11  -0.03    -0.03   0.03   0.01     0.06  -0.08  -0.03
  39   8     0.08  -0.17  -0.08    -0.02   0.05   0.04     0.06  -0.10  -0.05
  40   7     0.06   0.01  -0.04    -0.05  -0.03   0.00     0.05  -0.00  -0.04
  41   1     0.02   0.01  -0.03     0.01  -0.00   0.02     0.02   0.00  -0.02
  42   1     0.00   0.02   0.00     0.00  -0.01  -0.00    -0.00   0.01  -0.00
  43   7     0.01  -0.19   0.16     0.01   0.06  -0.07     0.00  -0.15   0.12
  44   1    -0.01  -0.00   0.08     0.02   0.00  -0.03    -0.02  -0.00   0.06
  45   1     0.02  -0.09   0.06    -0.00   0.04  -0.02     0.02  -0.08   0.05
  46   6     0.01   0.00  -0.00    -0.01  -0.00   0.01    -0.01  -0.01  -0.00
  47   8     0.05   0.01   0.02    -0.02  -0.01   0.01    -0.02  -0.01  -0.01
  48   7    -0.01  -0.01  -0.00     0.01   0.00  -0.01    -0.00   0.00   0.01
  49   1    -0.00  -0.01  -0.00     0.00   0.01  -0.01    -0.01  -0.00  -0.00
  50   1    -0.01  -0.00  -0.01     0.01  -0.00   0.00     0.00   0.00   0.00
  51   7    -0.01   0.01  -0.03     0.00  -0.02   0.02    -0.00  -0.00   0.01
  52   1    -0.01   0.00  -0.01     0.01  -0.00   0.01     0.00  -0.00   0.00
  53   1     0.00   0.01  -0.00     0.01   0.00   0.02    -0.01  -0.01  -0.00
                     31                     32                     33
                        a                      a                      a 
 Frequencies --   298.0201               322.6098               325.6932
 Red. masses --     6.4287                 3.6941                 2.3374
 Frc consts  --     0.0000                 0.0000                 0.0000
 IR Inten    --     0.3550               464.4209                 4.8241
 Raman Activ --     0.0000                 0.0000                 0.0000
 Depolar     --     0.0000                 0.0000                 0.0000
 Atom AN      X      Y      Z        X      Y      Z        X      Y      Z
   1   8    -0.04  -0.05  -0.05    -0.01  -0.01  -0.00    -0.17  -0.00  -0.05
   2   6    -0.05   0.32   0.19    -0.00  -0.01   0.01    -0.05  -0.09   0.02
   3   1    -0.02   0.13   0.22    -0.00  -0.00   0.00    -0.00  -0.03  -0.03
   4   1    -0.06   0.25  -0.05     0.00  -0.00   0.00     0.00  -0.05   0.02
   5   6     0.05  -0.08   0.02     0.00  -0.00   0.00    -0.03  -0.03   0.03
   6   1    -0.01  -0.03  -0.01     0.00   0.00   0.00    -0.01  -0.00   0.02
   7   1     0.00  -0.04  -0.01    -0.00  -0.00  -0.00    -0.01  -0.03   0.00
   8   7     0.09  -0.09  -0.01     0.01   0.00  -0.00     0.04   0.03  -0.02
   9   6     0.05  -0.27  -0.09     0.00  -0.01  -0.01     0.08  -0.06  -0.02
  10   1     0.10  -0.21   0.07     0.00  -0.01   0.00     0.26  -0.25   0.15
  11   1     0.01   0.07   0.00     0.00   0.01  -0.00     0.01   0.32   0.08
  12   1    -0.08  -0.15  -0.16    -0.01  -0.01  -0.01    -0.19  -0.15  -0.23
  13   6     0.06   0.28   0.20     0.01   0.01   0.00     0.03   0.16   0.05
  14   1     0.01   0.27  -0.11    -0.00   0.00   0.00    -0.17  -0.21   0.29
  15   1     0.01   0.17   0.28     0.00   0.00  -0.00     0.13  -0.07  -0.31
  16   1     0.03  -0.11   0.03     0.00   0.01   0.00     0.04   0.46   0.12
  17   6    -0.05  -0.19  -0.26     0.01   0.01   0.00     0.10   0.02  -0.06
  18   1     0.00  -0.09  -0.07    -0.00   0.00  -0.00     0.02  -0.02  -0.02
  19   1    -0.01  -0.09  -0.11     0.00   0.00   0.01     0.03   0.03  -0.01
  20   1    -0.06   0.00  -0.11     0.01   0.00  -0.00     0.05   0.00  -0.02
  21   1     0.01  -0.01  -0.07    -0.00  -0.00  -0.00    -0.06  -0.00   0.00
  22   6    -0.01   0.01   0.00     0.00   0.00   0.01    -0.01  -0.00  -0.00
  23   8    -0.01   0.01  -0.01     0.00   0.00   0.01    -0.01  -0.00  -0.01
  24   7    -0.01   0.01   0.00     0.01   0.00  -0.00    -0.01  -0.02  -0.00
  25   1     0.00  -0.00   0.00    -0.00  -0.01   0.00     0.02   0.02   0.01
  26   1    -0.01  -0.00  -0.00    -0.01  -0.03  -0.01    -0.01  -0.01  -0.01
  27   7     0.01   0.00   0.02    -0.02  -0.01  -0.01    -0.01   0.00   0.01
  28   1    -0.01  -0.01   0.01     0.04   0.05   0.01     0.01   0.02   0.01
  29   1     0.00  -0.01   0.00     0.01   0.02   0.00     0.01   0.01   0.00
  30   6     0.00   0.00   0.00     0.09  -0.07  -0.07    -0.00   0.00   0.00
  31   8     0.00   0.00   0.00    -0.01   0.00  -0.01     0.00  -0.00  -0.00
  32   7     0.00  -0.00   0.00    -0.22   0.14   0.15     0.01  -0.00  -0.01
  33   1    -0.00  -0.00   0.00     0.21  -0.14  -0.15    -0.01   0.00   0.00
  34   1     0.00  -0.00  -0.00     0.36  -0.24  -0.24    -0.01   0.01   0.01
  35   7    -0.00  -0.00  -0.00    -0.21   0.13   0.15     0.01  -0.00  -0.00
  36   1    -0.00   0.00   0.00     0.42  -0.26  -0.28    -0.01   0.01   0.01
  37   1    -0.00  -0.00   0.00     0.20  -0.12  -0.14    -0.00   0.00   0.00
  38   6    -0.01   0.01   0.01    -0.01   0.01  -0.00     0.01  -0.01  -0.01
  39   8    -0.01   0.01   0.02    -0.02   0.01   0.00     0.01  -0.01  -0.01
  40   7    -0.00  -0.01   0.02     0.05   0.01   0.00     0.01   0.01  -0.01
  41   1    -0.01  -0.00   0.00    -0.02  -0.01   0.00     0.00   0.00  -0.00
  42   1     0.00  -0.00   0.00    -0.05  -0.04  -0.02     0.00   0.00  -0.00
  43   7    -0.00   0.02  -0.02    -0.02  -0.04  -0.05    -0.00  -0.02   0.01
  44   1     0.00  -0.00  -0.01     0.08   0.09   0.04    -0.00   0.00   0.01
  45   1    -0.00   0.01  -0.01     0.06   0.06   0.04     0.00  -0.01   0.01
  46   6    -0.01   0.00   0.00    -0.00   0.01   0.01     0.00   0.01   0.02
  47   8    -0.02  -0.00  -0.01     0.01  -0.01  -0.01     0.02   0.02   0.03
  48   7     0.00   0.01  -0.00    -0.04  -0.00  -0.05    -0.02  -0.00   0.00
  49   1    -0.00   0.00  -0.01     0.06   0.02   0.06     0.00  -0.00   0.01
  50   1     0.00   0.00  -0.00     0.07   0.02   0.09    -0.01  -0.00  -0.00
  51   7    -0.00  -0.00   0.01     0.02   0.00   0.03    -0.01  -0.02   0.01
  52   1     0.00  -0.00   0.01    -0.02  -0.01  -0.03    -0.00  -0.01  -0.01
  53   1    -0.00   0.00   0.01    -0.00  -0.01  -0.01     0.00  -0.00   0.02
                     34                     35                     36
                        a                      a                      a 
 Frequencies --   343.3330               366.8247               372.3624
 Red. masses --     8.6468                 7.6395                 3.3865
 Frc consts  --     0.0000                 0.0000                 0.0000
 IR Inten    --     5.0622                 1.4498               213.1468
 Raman Activ --     0.0000                 0.0000                 0.0000
 Depolar     --     0.0000                 0.0000                 0.0000
 Atom AN      X      Y      Z        X      Y      Z        X      Y      Z
   1   8     0.40  -0.17  -0.02     0.19  -0.01   0.05     0.01  -0.00  -0.00
   2   6     0.05   0.22  -0.08     0.16   0.16   0.16     0.01   0.00   0.01
   3   1    -0.04   0.07   0.09     0.09   0.09   0.18     0.00   0.00   0.01
   4   1    -0.01   0.17  -0.09    -0.01   0.16  -0.03     0.00   0.00   0.00
   5   6     0.01   0.05  -0.09     0.05  -0.28   0.23     0.00  -0.01   0.01
   6   1    -0.03  -0.01  -0.07    -0.10  -0.05   0.17    -0.00  -0.00   0.01
   7   1     0.04   0.04   0.01     0.08  -0.23   0.10     0.00  -0.01   0.01
   8   7    -0.11  -0.09   0.04    -0.03  -0.04  -0.04    -0.00   0.01  -0.00
   9   6     0.10   0.19   0.28    -0.30   0.07  -0.24    -0.01  -0.00  -0.01
  10   1     0.13   0.09   0.03    -0.09  -0.02  -0.03    -0.00  -0.00   0.00
  11   1     0.01   0.09   0.16    -0.06   0.11  -0.14    -0.00  -0.00  -0.00
  12   1     0.02   0.06   0.11    -0.19  -0.00  -0.08    -0.00  -0.00  -0.01
  13   6    -0.12  -0.20   0.01     0.07   0.01  -0.37    -0.00   0.00  -0.01
  14   1    -0.07  -0.18   0.12     0.07  -0.05  -0.07     0.00   0.00  -0.01
  15   1    -0.02  -0.11  -0.15     0.08  -0.02  -0.19    -0.01   0.00  -0.00
  16   1    -0.02   0.09   0.05    -0.05   0.09  -0.16    -0.00  -0.01  -0.01
  17   6    -0.20  -0.20  -0.21    -0.08   0.04   0.17     0.00   0.01   0.00
  18   1     0.04  -0.05   0.01     0.03   0.09   0.10     0.00   0.00   0.00
  19   1    -0.04  -0.14  -0.20    -0.01   0.01   0.01     0.00   0.01  -0.00
  20   1    -0.21  -0.00  -0.05    -0.09  -0.04   0.13     0.00   0.00   0.00
  21   1     0.15  -0.04  -0.05     0.04  -0.01  -0.04     0.00  -0.00  -0.00
  22   6    -0.04   0.01   0.01    -0.01   0.00   0.00    -0.00   0.01   0.00
  23   8    -0.03   0.03  -0.03    -0.01   0.00  -0.01     0.00   0.01   0.00
  24   7    -0.02   0.03   0.00     0.00   0.02   0.00     0.01  -0.01  -0.00
  25   1     0.01  -0.01   0.01     0.00  -0.01   0.00     0.01  -0.00   0.00
  26   1    -0.02  -0.03  -0.02    -0.01  -0.02  -0.01     0.00   0.01  -0.00
  27   7     0.02  -0.02   0.06     0.01  -0.00   0.02     0.00  -0.00   0.01
  28   1    -0.00  -0.02   0.04    -0.00  -0.01   0.01    -0.01  -0.02  -0.00
  29   1     0.02  -0.02   0.00     0.00  -0.01   0.00     0.00  -0.00   0.00
  30   6     0.01  -0.00   0.00     0.00  -0.00   0.00    -0.02   0.02  -0.02
  31   8     0.00   0.00   0.00     0.00   0.00   0.00     0.01  -0.01  -0.03
  32   7    -0.00   0.00   0.01     0.00   0.00   0.00     0.02  -0.06  -0.03
  33   1     0.00  -0.00  -0.00     0.00   0.00   0.00    -0.03   0.00   0.01
  34   1     0.01  -0.01  -0.01     0.00  -0.00  -0.00    -0.15   0.09   0.11
  35   7    -0.01  -0.00   0.00    -0.00  -0.00   0.00     0.05   0.00  -0.03
  36   1     0.00  -0.00  -0.01    -0.00  -0.00  -0.00    -0.04   0.04   0.04
  37   1    -0.00  -0.01   0.00    -0.00  -0.00   0.00    -0.02   0.03   0.02
  38   6    -0.05   0.03   0.04    -0.01   0.01   0.01     0.02   0.00  -0.01
  39   8    -0.03   0.02   0.02     0.00   0.00   0.01    -0.01   0.03   0.01
  40   7    -0.03  -0.01   0.04    -0.01   0.00   0.01     0.03   0.01  -0.00
  41   1    -0.02  -0.00   0.01    -0.00   0.00   0.00    -0.02  -0.00  -0.01
  42   1     0.00  -0.01   0.01    -0.00   0.00   0.00     0.00  -0.01  -0.01
  43   7     0.00   0.09  -0.07     0.00   0.03  -0.02    -0.07  -0.07  -0.03
  44   1     0.02  -0.00  -0.04     0.00  -0.00  -0.01     0.09   0.10   0.06
  45   1    -0.01   0.06  -0.04    -0.01   0.02  -0.01     0.07   0.07   0.07
  46   6     0.01   0.01   0.00     0.01   0.00   0.00     0.00   0.00   0.03
  47   8     0.01   0.01   0.01     0.01   0.01   0.01     0.03  -0.07  -0.05
  48   7    -0.00   0.00  -0.02    -0.01  -0.02   0.02    -0.25  -0.02  -0.24
  49   1     0.01   0.01   0.01    -0.01  -0.02   0.00     0.39   0.13   0.40
  50   1     0.01   0.00   0.01    -0.02  -0.00  -0.01     0.37   0.09   0.46
  51   7     0.00   0.01   0.00     0.00  -0.02  -0.01     0.03   0.04   0.15
  52   1    -0.00   0.00  -0.00     0.00  -0.01   0.00    -0.09  -0.05  -0.14
  53   1    -0.00  -0.00  -0.01     0.01   0.00   0.01    -0.05  -0.06  -0.09
                     37                     38                     39
                        a                      a                      a 
 Frequencies --   426.3856               429.1379               453.2338
 Red. masses --     8.4602                 3.1798                 1.6197
 Frc consts  --     0.0000                 0.0000                 0.0000
 IR Inten    --     4.1171               189.9785                18.2015
 Raman Activ --     0.0000                 0.0000                 0.0000
 Depolar     --     0.0000                 0.0000                 0.0000
 Atom AN      X      Y      Z        X      Y      Z        X      Y      Z
   1   8    -0.23   0.01  -0.05    -0.03  -0.03  -0.02    -0.01   0.01   0.00
   2   6    -0.05   0.00   0.12    -0.01   0.01   0.04     0.00   0.00   0.00
   3   1    -0.00   0.01   0.05    -0.00   0.01   0.02     0.00   0.00  -0.00
   4   1    -0.03   0.02   0.02    -0.00   0.02  -0.00    -0.00  -0.00   0.00
   5   6     0.11  -0.04  -0.10     0.03  -0.01  -0.01    -0.00  -0.00   0.01
   6   1     0.07  -0.02  -0.05     0.01  -0.00  -0.01    -0.01   0.00   0.01
   7   1    -0.02   0.02  -0.08    -0.00  -0.00  -0.01     0.00  -0.01   0.00
   8   7     0.32  -0.06  -0.11     0.07  -0.00  -0.03     0.01   0.01  -0.01
   9   6     0.10   0.30  -0.24     0.03   0.08  -0.06     0.01  -0.00  -0.01
  10   1     0.02   0.13  -0.11     0.02   0.02  -0.02     0.00  -0.00  -0.00
  11   1     0.05   0.13  -0.13     0.01   0.04  -0.03     0.00  -0.00  -0.00
  12   1    -0.07   0.10   0.01    -0.03   0.02  -0.01     0.01  -0.00  -0.01
  13   6     0.21  -0.15   0.22     0.04  -0.05   0.05    -0.00  -0.01   0.01
  14   1    -0.00  -0.07   0.11     0.00  -0.03   0.03    -0.00  -0.00   0.00
  15   1    -0.00  -0.06   0.05    -0.01  -0.02   0.00    -0.01  -0.00   0.00
  16   1     0.13  -0.03   0.13     0.03  -0.01   0.03     0.00  -0.01   0.01
  17   6    -0.35  -0.06   0.12    -0.10  -0.00   0.02    -0.01   0.01  -0.00
  18   1    -0.17   0.15   0.02    -0.05   0.04   0.00    -0.00   0.01  -0.00
  19   1    -0.15  -0.18   0.10    -0.04  -0.04   0.02    -0.00   0.00   0.00
  20   1    -0.19  -0.01   0.07    -0.05   0.00   0.01    -0.01   0.00   0.00
  21   1    -0.07   0.00  -0.01    -0.01  -0.01  -0.01    -0.00   0.00   0.00
  22   6     0.01  -0.03  -0.00     0.00   0.10   0.02    -0.00  -0.00  -0.00
  23   8     0.01  -0.03   0.00     0.01   0.09  -0.03    -0.00   0.00  -0.00
  24   7    -0.00   0.06   0.02    -0.01  -0.29  -0.06     0.00  -0.00  -0.00
  25   1     0.01   0.01   0.01    -0.04   0.01  -0.05    -0.00  -0.00  -0.00
  26   1    -0.07  -0.20  -0.05     0.29   0.80   0.21     0.00   0.01   0.00
  27   7     0.02   0.04  -0.02    -0.10  -0.12   0.01    -0.00  -0.00   0.00
  28   1    -0.00   0.00  -0.02     0.00   0.01   0.04     0.00   0.00   0.00
  29   1    -0.03  -0.02  -0.01     0.09   0.12   0.03     0.00  -0.00  -0.00
  30   6    -0.00  -0.00  -0.00    -0.00  -0.00  -0.00     0.03   0.05  -0.01
  31   8    -0.00  -0.00   0.00    -0.00  -0.00   0.00     0.04   0.05  -0.02
  32   7     0.00   0.00  -0.01    -0.00   0.00   0.00     0.07  -0.08   0.01
  33   1     0.00   0.00  -0.00     0.01  -0.00  -0.00    -0.38   0.18   0.24
  34   1    -0.01   0.01   0.00     0.00  -0.00  -0.00     0.40  -0.27  -0.20
  35   7     0.01   0.00   0.00    -0.00   0.00   0.00    -0.12   0.04   0.01
  36   1     0.00   0.00   0.00     0.01  -0.01  -0.01    -0.34   0.19   0.14
  37   1    -0.00   0.01   0.00    -0.00   0.00   0.00     0.31  -0.27  -0.22
  38   6     0.02   0.00  -0.01    -0.00  -0.01   0.00     0.01  -0.00   0.00
  39   8    -0.00   0.01   0.00    -0.00  -0.01   0.00     0.02  -0.01  -0.01
  40   7     0.01  -0.01  -0.01     0.02   0.01   0.00    -0.03  -0.03   0.00
  41   1     0.01  -0.00   0.00    -0.04  -0.01  -0.02     0.01   0.00  -0.00
  42   1     0.01  -0.00  -0.00    -0.02  -0.00   0.00     0.07   0.04   0.03
  43   7    -0.01  -0.02   0.02     0.00  -0.01  -0.02     0.02   0.05   0.04
  44   1    -0.00   0.01   0.02     0.01   0.00  -0.00    -0.09  -0.08  -0.04
  45   1     0.00  -0.02   0.01     0.02   0.02   0.01    -0.07  -0.07  -0.05
  46   6     0.01   0.00  -0.01     0.00  -0.00  -0.00    -0.00  -0.01   0.00
  47   8    -0.00   0.01   0.00     0.00  -0.00   0.00     0.01  -0.02  -0.00
  48   7    -0.01  -0.01   0.01     0.01  -0.00   0.00    -0.04  -0.00  -0.04
  49   1     0.00  -0.01   0.01    -0.00  -0.00  -0.01     0.07   0.03   0.07
  50   1    -0.00   0.00   0.01    -0.01  -0.00  -0.02     0.05   0.01   0.05
  51   7     0.01  -0.00  -0.01     0.01   0.01   0.02    -0.00   0.01   0.01
  52   1    -0.00  -0.00  -0.01     0.00  -0.00  -0.01     0.01   0.00   0.01
  53   1     0.01   0.00   0.00    -0.01  -0.02  -0.02    -0.02  -0.02  -0.02
                     40                     41                     42
                        a                      a                      a 
 Frequencies --   458.6743               463.9041               468.2667
 Red. masses --     8.3592                 8.3076                 8.0490
 Frc consts  --     0.0000                 0.0000                 0.0000
 IR Inten    --    13.3810                 2.0075                11.3023
 Raman Activ --     0.0000                 0.0000                 0.0000
 Depolar     --     0.0000                 0.0000                 0.0000
 Atom AN      X      Y      Z        X      Y      Z        X      Y      Z
   1   8    -0.00   0.01   0.00    -0.10  -0.01  -0.06    -0.00   0.02   0.03
   2   6     0.00   0.00  -0.00     0.12   0.02   0.21     0.03   0.00   0.04
   3   1     0.00   0.00  -0.00     0.01  -0.02  -0.01     0.02   0.00   0.01
   4   1    -0.00   0.00  -0.00     0.11  -0.03   0.09     0.00   0.00   0.01
   5   6    -0.01  -0.02   0.01     0.09   0.29   0.23    -0.03  -0.06   0.12
   6   1    -0.02  -0.00   0.02     0.09   0.08   0.03    -0.08   0.01   0.13
   7   1     0.00  -0.02   0.01    -0.01   0.13   0.04     0.03  -0.14   0.05
   8   7     0.00   0.02  -0.02     0.06   0.24   0.19     0.01   0.18  -0.14
   9   6     0.02  -0.01  -0.02    -0.11  -0.18  -0.04     0.16  -0.12  -0.09
  10   1     0.01  -0.01  -0.00    -0.12  -0.12   0.07     0.03  -0.07   0.01
  11   1     0.00  -0.01   0.00    -0.01  -0.07  -0.08     0.03  -0.08   0.02
  12   1     0.01  -0.00  -0.01    -0.01  -0.08  -0.10     0.12  -0.04  -0.08
  13   6    -0.01  -0.01   0.02     0.10  -0.29  -0.10    -0.12  -0.16   0.08
  14   1    -0.01  -0.01   0.01     0.15  -0.18   0.02    -0.02  -0.08   0.05
  15   1    -0.02  -0.01   0.01    -0.05  -0.13  -0.13    -0.14  -0.06   0.01
  16   1     0.01  -0.01   0.01    -0.01  -0.09  -0.06     0.03  -0.10   0.07
  17   6    -0.01   0.03  -0.00    -0.13   0.05  -0.29    -0.08   0.22  -0.08
  18   1    -0.00   0.02   0.00    -0.04  -0.07  -0.10    -0.02   0.09  -0.01
  19   1    -0.00   0.01   0.00    -0.05  -0.09  -0.13    -0.03   0.04  -0.02
  20   1    -0.01   0.00   0.01    -0.10   0.13  -0.17    -0.05   0.05  -0.00
  21   1    -0.00   0.00   0.00    -0.03  -0.00  -0.01    -0.01   0.00  -0.01
  22   6    -0.01   0.00  -0.00     0.07  -0.05   0.02    -0.16   0.12  -0.05
  23   8    -0.01   0.00   0.01     0.09  -0.06  -0.03    -0.19   0.12   0.09
  24   7     0.01  -0.00  -0.01    -0.06   0.02   0.11     0.15  -0.04  -0.24
  25   1     0.01  -0.00   0.00    -0.08   0.01  -0.01     0.15  -0.04   0.01
  26   1     0.00  -0.00  -0.01    -0.03  -0.01   0.09     0.05  -0.02  -0.20
  27   7     0.01  -0.00   0.01    -0.04   0.05  -0.09     0.11  -0.11   0.19
  28   1     0.00  -0.00   0.01    -0.02  -0.00  -0.12     0.06   0.02   0.27
  29   1     0.01  -0.01  -0.00    -0.07   0.09   0.02     0.13  -0.24  -0.07
  30   6     0.16   0.27  -0.03    -0.00   0.00  -0.00    -0.02  -0.03   0.00
  31   8     0.15   0.31  -0.08     0.00   0.00   0.00    -0.02  -0.04   0.01
  32   7     0.04  -0.23   0.33    -0.00  -0.00   0.00    -0.01   0.03  -0.04
  33   1    -0.08  -0.28  -0.04     0.00  -0.00  -0.00     0.02   0.03  -0.00
  34   1     0.06  -0.06   0.33    -0.00   0.00   0.00    -0.01   0.01  -0.03
  35   7    -0.25  -0.14  -0.28    -0.00   0.00  -0.00     0.03   0.01   0.03
  36   1    -0.14  -0.03  -0.32     0.01  -0.00  -0.00     0.03  -0.01   0.03
  37   1    -0.19  -0.22   0.11    -0.01   0.00   0.00     0.00   0.04  -0.00
  38   6    -0.00  -0.03   0.02     0.01   0.02  -0.02     0.00   0.00  -0.02
  39   8    -0.01  -0.04   0.02    -0.01   0.03  -0.01     0.01   0.01  -0.01
  40   7    -0.00   0.04   0.01     0.02  -0.02  -0.01     0.00  -0.03  -0.01
  41   1     0.01   0.02   0.00     0.00  -0.01   0.01    -0.00  -0.01   0.01
  42   1    -0.04  -0.01  -0.01     0.02  -0.01  -0.01     0.00  -0.02  -0.01
  43   7     0.03  -0.01  -0.01    -0.02  -0.00   0.04     0.00   0.01   0.02
  44   1     0.01  -0.01  -0.01    -0.01   0.01   0.02    -0.00  -0.00   0.00
  45   1    -0.00   0.01  -0.01    -0.02  -0.03   0.00    -0.03  -0.04  -0.02
  46   6    -0.01  -0.02   0.01    -0.01  -0.02   0.03    -0.02  -0.08   0.08
  47   8     0.01  -0.03   0.02     0.01  -0.03   0.03     0.01  -0.10   0.08
  48   7     0.02   0.00  -0.02     0.03   0.02  -0.04     0.12   0.02  -0.12
  49   1    -0.05  -0.01  -0.06    -0.02   0.02  -0.04    -0.04   0.07  -0.11
  50   1     0.03   0.00   0.02     0.04  -0.00   0.00     0.12  -0.02  -0.01
  51   7    -0.03   0.02  -0.00    -0.04   0.04  -0.01    -0.09   0.12  -0.01
  52   1    -0.04   0.01  -0.02    -0.03   0.02   0.00    -0.09   0.06   0.03
  53   1     0.01   0.03  -0.01     0.01   0.03  -0.01     0.02   0.08  -0.05
                     43                     44                     45
                        a                      a                      a 
 Frequencies --   470.9479               476.5289               483.9580
 Red. masses --     7.9051                 1.9989                 2.8963
 Frc consts  --     0.0000                 0.0000                 0.0000
 IR Inten    --    10.2881                48.7306                 0.9840
 Raman Activ --     0.0000                 0.0000                 0.0000
 Depolar     --     0.0000                 0.0000                 0.0000
 Atom AN      X      Y      Z        X      Y      Z        X      Y      Z
   1   8    -0.10   0.05  -0.02     0.00  -0.00   0.00     0.02  -0.02  -0.01
   2   6    -0.01  -0.00   0.05     0.02   0.00   0.02     0.01   0.00   0.00
   3   1    -0.02  -0.02  -0.05     0.01   0.00   0.01     0.00   0.00   0.01
   4   1     0.04  -0.05   0.05     0.00   0.00   0.00     0.00   0.01  -0.01
   5   6     0.05   0.20  -0.03    -0.00  -0.01   0.04    -0.00  -0.01   0.01
   6   1     0.13   0.02  -0.13    -0.02   0.01   0.04    -0.01   0.00   0.01
   7   1    -0.05   0.21  -0.04     0.01  -0.04   0.01     0.01  -0.01   0.01
   8   7     0.04  -0.10   0.24     0.00   0.06  -0.04    -0.01   0.02  -0.01
   9   6    -0.24   0.05   0.05     0.05  -0.05  -0.03     0.02  -0.01  -0.00
  10   1    -0.12   0.03   0.01     0.01  -0.03   0.00     0.01  -0.01   0.00
  11   1    -0.04   0.03  -0.08     0.01  -0.03   0.01     0.00  -0.01   0.01
  12   1    -0.12   0.02   0.05     0.03  -0.02  -0.02     0.01  -0.00  -0.01
  13   6     0.20   0.06  -0.12    -0.04  -0.06   0.02    -0.02  -0.02   0.01
  14   1     0.10   0.02  -0.04    -0.00  -0.03   0.02    -0.00  -0.01   0.00
  15   1     0.14   0.02  -0.06    -0.05  -0.02   0.00    -0.02  -0.01   0.00
  16   1    -0.03   0.07  -0.10     0.01  -0.03   0.02     0.00  -0.01   0.01
  17   6     0.03  -0.23  -0.03    -0.03   0.07  -0.03    -0.01   0.02  -0.01
  18   1     0.00  -0.13  -0.03    -0.01   0.03  -0.01    -0.00   0.01  -0.00
  19   1     0.01  -0.09  -0.02    -0.01   0.01  -0.01    -0.00   0.01  -0.00
  20   1     0.01  -0.00  -0.07    -0.02   0.02  -0.01    -0.00   0.00  -0.00
  21   1    -0.02   0.01   0.01    -0.00  -0.00  -0.01    -0.00  -0.01  -0.01
  22   6    -0.14   0.12  -0.05    -0.00   0.01   0.00     0.12   0.03   0.02
  23   8    -0.18   0.11   0.10    -0.00   0.00  -0.00     0.13   0.03   0.04
  24   7     0.14  -0.04  -0.24     0.01  -0.00  -0.01    -0.17  -0.14   0.06
  25   1     0.13  -0.05   0.00     0.02   0.01   0.01    -0.05   0.10  -0.01
  26   1     0.06   0.00  -0.18    -0.01  -0.03  -0.02    -0.02   0.06   0.12
  27   7     0.10  -0.11   0.17     0.00  -0.00   0.01    -0.03   0.11  -0.12
  28   1     0.05   0.01   0.26     0.00   0.00   0.01     0.26   0.40   0.11
  29   1     0.13  -0.23  -0.07    -0.00  -0.02  -0.00    -0.38  -0.62  -0.18
  30   6     0.01   0.02  -0.00    -0.00   0.02   0.01    -0.00  -0.00  -0.00
  31   8     0.01   0.02  -0.00    -0.01   0.03  -0.00    -0.00  -0.00  -0.00
  32   7     0.01  -0.02   0.02     0.01  -0.02   0.02     0.00  -0.00  -0.00
  33   1    -0.01  -0.01   0.00     0.00  -0.02  -0.00     0.00  -0.00  -0.00
  34   1     0.01  -0.01   0.02     0.00  -0.00   0.02    -0.01   0.01   0.00
  35   7    -0.02  -0.01  -0.02    -0.01  -0.02  -0.02     0.00   0.00   0.00
  36   1    -0.02   0.01  -0.01    -0.02   0.00  -0.02    -0.01   0.01   0.01
  37   1     0.01  -0.02  -0.01    -0.00  -0.03   0.00     0.01  -0.00  -0.01
  38   6     0.01  -0.01  -0.02    -0.01  -0.04   0.00    -0.01  -0.03   0.03
  39   8    -0.01   0.01   0.00    -0.05  -0.00   0.05     0.00  -0.05   0.03
  40   7     0.01  -0.01  -0.02     0.03   0.07   0.01    -0.04   0.05   0.01
  41   1    -0.00  -0.01  -0.00    -0.09   0.02  -0.13     0.03   0.03  -0.01
  42   1    -0.00  -0.00  -0.00     0.05   0.13   0.09    -0.04   0.01   0.01
  43   7    -0.00  -0.04   0.01    -0.03  -0.10  -0.11     0.04   0.00  -0.05
  44   1    -0.01   0.01   0.02    -0.06  -0.00  -0.00     0.04  -0.02  -0.03
  45   1     0.03  -0.00   0.03     0.28   0.20   0.22    -0.00   0.04  -0.03
  46   6     0.02   0.04  -0.05     0.00   0.02  -0.02     0.01   0.03  -0.03
  47   8    -0.01   0.06  -0.04    -0.03   0.04  -0.01    -0.01   0.04  -0.03
  48   7    -0.06  -0.02   0.07    -0.07  -0.05   0.01    -0.04   0.00   0.04
  49   1     0.02  -0.05   0.06     0.29   0.17   0.29    -0.00  -0.04   0.02
  50   1    -0.07   0.01   0.00    -0.22  -0.12  -0.37    -0.03   0.02   0.04
  51   7     0.06  -0.08   0.01     0.04  -0.01  -0.05     0.03  -0.05  -0.01
  52   1     0.06  -0.04  -0.01     0.33   0.09   0.36     0.00  -0.03  -0.04
  53   1    -0.01  -0.05   0.03    -0.13  -0.16  -0.06     0.02   0.00   0.04
                     46                     47                     48
                        a                      a                      a 
 Frequencies --   489.4836               494.1190               505.0691
 Red. masses --     8.4532                 4.6424                 7.6222
 Frc consts  --     0.0000                 0.0000                 0.0000
 IR Inten    --    26.3029                64.6563                35.9876
 Raman Activ --     0.0000                 0.0000                 0.0000
 Depolar     --     0.0000                 0.0000                 0.0000
 Atom AN      X      Y      Z        X      Y      Z        X      Y      Z
   1   8     0.01  -0.03  -0.01    -0.00   0.01   0.00    -0.05   0.08   0.01
   2   6    -0.02  -0.01  -0.02    -0.00   0.00  -0.01    -0.02   0.01  -0.02
   3   1    -0.01   0.00   0.01    -0.00  -0.00  -0.01    -0.01  -0.01  -0.04
   4   1    -0.01   0.01  -0.01     0.00  -0.01   0.00     0.00  -0.03   0.01
   5   6     0.02   0.01  -0.07    -0.00   0.02   0.00    -0.01   0.04  -0.01
   6   1     0.05  -0.01  -0.07    -0.00   0.00  -0.00     0.01   0.00  -0.03
   7   1    -0.01   0.07  -0.03    -0.00   0.01   0.00    -0.01   0.03  -0.01
   8   7    -0.01  -0.11   0.06     0.01   0.00   0.01     0.03  -0.03   0.05
   9   6    -0.10   0.10   0.04    -0.01  -0.00  -0.00    -0.06   0.03  -0.01
  10   1    -0.01   0.05  -0.01    -0.01  -0.00   0.00    -0.03   0.01  -0.00
  11   1    -0.02   0.06  -0.01    -0.00  -0.00  -0.01    -0.01   0.03  -0.03
  12   1    -0.07   0.03   0.04    -0.00  -0.00  -0.00    -0.04   0.01   0.01
  13   6     0.06   0.12  -0.06     0.02  -0.00  -0.00     0.07   0.04  -0.01
  14   1     0.00   0.05  -0.03     0.01  -0.00   0.00     0.02   0.02  -0.01
  15   1     0.08   0.04  -0.01     0.01  -0.00  -0.00     0.04   0.01  -0.01
  16   1    -0.02   0.07  -0.04     0.00   0.00  -0.00     0.00   0.03  -0.02
  17   6     0.05  -0.12   0.06    -0.00  -0.01  -0.01     0.00  -0.06   0.01
  18   1     0.01  -0.05   0.02    -0.00  -0.01  -0.00    -0.01  -0.02  -0.00
  19   1     0.02  -0.02   0.02    -0.00  -0.01  -0.00    -0.00  -0.03   0.01
  20   1     0.03  -0.04   0.01    -0.00   0.00  -0.01     0.00  -0.00  -0.01
  21   1     0.01  -0.01  -0.00    -0.01   0.00  -0.00    -0.01   0.02   0.01
  22   6     0.04  -0.01   0.03    -0.01  -0.01   0.01    -0.01  -0.02   0.01
  23   8     0.05  -0.00  -0.03    -0.01  -0.01  -0.01    -0.00  -0.01  -0.02
  24   7    -0.03  -0.04   0.05     0.02   0.01   0.00     0.03  -0.00   0.01
  25   1    -0.01   0.02   0.01     0.01  -0.00   0.01     0.00  -0.01   0.00
  26   1    -0.00   0.01   0.04    -0.00  -0.03  -0.02     0.01  -0.01  -0.01
  27   7    -0.03   0.04  -0.03    -0.00  -0.00   0.01    -0.01   0.00   0.00
  28   1     0.05   0.08  -0.01    -0.02  -0.03  -0.02    -0.00  -0.00  -0.01
  29   1    -0.10  -0.09  -0.02     0.02   0.05   0.02     0.01   0.03   0.01
  30   6    -0.00   0.01   0.00    -0.02  -0.01   0.03     0.02  -0.02   0.00
  31   8    -0.00   0.01   0.01    -0.07   0.00  -0.01     0.01  -0.04  -0.03
  32   7     0.01  -0.00   0.00     0.05  -0.01  -0.03    -0.02   0.03  -0.01
  33   1    -0.00   0.00   0.00     0.07  -0.00  -0.02    -0.06   0.07   0.06
  34   1     0.00  -0.00   0.00    -0.07   0.05   0.01     0.05  -0.03  -0.07
  35   7     0.00  -0.00  -0.00     0.01  -0.02   0.04     0.01  -0.01   0.03
  36   1    -0.01   0.01   0.00    -0.16   0.09   0.11     0.10  -0.06  -0.04
[...]
  44   1    -0.01   0.03  -0.04    -0.12   0.49  -0.74    -0.01   0.03  -0.04
  45   1    -0.01   0.00   0.01    -0.18   0.01   0.21    -0.01   0.00   0.01
  46   6    -0.00  -0.00   0.00     0.00   0.00  -0.00    -0.01  -0.00   0.00
  47   8     0.00   0.00  -0.00    -0.00  -0.00   0.00     0.00   0.00  -0.00
  48   7     0.00   0.00  -0.00     0.00   0.01  -0.00     0.00   0.01  -0.00
  49   1     0.00  -0.00  -0.00     0.01  -0.00  -0.01     0.03  -0.00  -0.03
  50   1    -0.00  -0.00   0.00    -0.01  -0.03   0.02    -0.03  -0.06   0.03
  51   7    -0.02   0.01   0.00     0.01  -0.00  -0.00    -0.19   0.08   0.03
  52   1     0.00   0.02  -0.01    -0.01  -0.02   0.01     0.07   0.32  -0.17
  53   1     0.06  -0.06   0.01    -0.04   0.04  -0.00     0.63  -0.62   0.07
                    142                    143                    144
                        a                      a                      a 
 Frequencies --  3449.5431              3471.0120              3492.5909
 Red. masses --     1.9437                 1.5189                 1.4540
 Frc consts  --     0.0000                 0.0000                 0.0000
 IR Inten    --   178.8223                69.9406                61.6197
 Raman Activ --     0.0000                 0.0000                 0.0000
 Depolar     --     0.0000                 0.0000                 0.0000
 Atom AN      X      Y      Z        X      Y      Z        X      Y      Z
   1   8     0.00  -0.00   0.00     0.00  -0.00   0.00     0.00  -0.00   0.00
   2   6     0.00  -0.00  -0.00    -0.00   0.00  -0.00     0.00   0.00  -0.00
   3   1     0.00   0.00  -0.00     0.00  -0.00   0.00     0.00  -0.00   0.00
   4   1    -0.00   0.00   0.00     0.00   0.00   0.00    -0.00   0.00  -0.00
   5   6     0.00  -0.00  -0.00     0.00  -0.00   0.00    -0.00  -0.00   0.00
   6   1     0.00   0.00  -0.00    -0.00   0.00  -0.00     0.00   0.00  -0.00
   7   1    -0.00  -0.00   0.00    -0.00  -0.00   0.00    -0.00  -0.00   0.00
   8   7    -0.00  -0.00   0.00     0.00   0.00   0.00    -0.00  -0.00  -0.00
   9   6    -0.00   0.00  -0.00     0.00  -0.00   0.00    -0.00   0.00   0.00
  10   1     0.00   0.00   0.00    -0.00  -0.00  -0.00    -0.00  -0.00  -0.00
  11   1     0.00   0.00  -0.00     0.00  -0.00   0.00     0.00   0.00   0.00
  12   1     0.00  -0.00   0.00    -0.00   0.00  -0.00     0.00   0.00   0.00
  13   6     0.00   0.00  -0.00     0.00  -0.00   0.00     0.00   0.00   0.00
  14   1     0.00  -0.00  -0.00     0.00  -0.00   0.00    -0.00  -0.00  -0.00
  15   1     0.00  -0.00   0.00     0.00   0.00  -0.00     0.00  -0.00   0.00
  16   1    -0.00  -0.00   0.00    -0.00  -0.00   0.00    -0.00   0.00   0.00
  17   6     0.00   0.00  -0.00    -0.00   0.00  -0.00     0.00   0.00   0.00
  18   1    -0.00  -0.00   0.00    -0.00  -0.00   0.00     0.00   0.00   0.00
  19   1    -0.00   0.00  -0.00     0.00  -0.00   0.00    -0.00   0.00   0.00
  20   1     0.00   0.00   0.00     0.00   0.00   0.00    -0.00  -0.00  -0.00
  21   1    -0.00   0.01  -0.00    -0.00   0.00  -0.00    -0.00   0.00  -0.00
  22   6    -0.00   0.00   0.00    -0.00  -0.00  -0.00    -0.00   0.00   0.00
  23   8     0.00  -0.00  -0.00     0.00  -0.00   0.00     0.00  -0.00  -0.00
  24   7    -0.00  -0.00   0.00     0.00   0.00  -0.00    -0.00   0.00  -0.00
  25   1     0.01  -0.00  -0.02    -0.00   0.00   0.00    -0.00   0.00   0.00
  26   1    -0.01   0.00  -0.00     0.00  -0.00   0.00     0.00  -0.00   0.00
  27   7     0.00  -0.00   0.00     0.00   0.00  -0.00    -0.00   0.00   0.00
  28   1     0.01  -0.01   0.00    -0.00   0.00  -0.00     0.01  -0.00   0.00
  29   1    -0.00   0.01  -0.01     0.00  -0.00   0.00    -0.00   0.00  -0.01
  30   6     0.00   0.01   0.00     0.00   0.00   0.00    -0.00   0.00  -0.00
  31   8    -0.00  -0.00  -0.00    -0.00  -0.00  -0.00     0.00   0.00  -0.00
  32   7     0.01  -0.00   0.01     0.01  -0.00   0.01    -0.11  -0.02  -0.14
  33   1    -0.01   0.04  -0.06    -0.01   0.03  -0.04     0.13  -0.42   0.59
  34   1    -0.02  -0.03   0.01    -0.01  -0.03   0.00     0.28   0.50  -0.08
  35   7    -0.00  -0.00  -0.00    -0.00   0.00  -0.00    -0.01   0.03  -0.04
  36   1    -0.01  -0.01   0.00    -0.01  -0.01   0.00    -0.09  -0.17   0.02
  37   1     0.01   0.01   0.01     0.01   0.01   0.01     0.12   0.05   0.12
  38   6    -0.00   0.01  -0.01    -0.00   0.00  -0.00    -0.00   0.00  -0.00
  39   8     0.00  -0.00   0.00     0.00  -0.00   0.00    -0.00  -0.00   0.00
  40   7    -0.05   0.20  -0.16    -0.00   0.02  -0.02    -0.00   0.01  -0.01
  41   1     0.07  -0.17  -0.07     0.00  -0.01  -0.00     0.00  -0.00  -0.00
  42   1     0.13  -0.59   0.66     0.01  -0.06   0.07     0.01  -0.04   0.05
  43   7    -0.03   0.03  -0.02    -0.01   0.01  -0.01    -0.01   0.01  -0.00
  44   1     0.03  -0.12   0.18     0.01  -0.03   0.05     0.01  -0.02   0.04
  45   1     0.07  -0.01  -0.08     0.02  -0.00  -0.02     0.02  -0.00  -0.03
  46   6     0.00  -0.00   0.00     0.00   0.01   0.00     0.00  -0.00   0.00
  47   8     0.00   0.00  -0.00    -0.00  -0.00   0.00    -0.00   0.00  -0.00
  48   7    -0.00  -0.02   0.00    -0.01   0.19  -0.01    -0.00   0.01   0.00
  49   1    -0.03   0.00   0.03     0.34  -0.02  -0.32     0.01  -0.00  -0.01
  50   1     0.04   0.09  -0.04    -0.30  -0.70   0.37    -0.01  -0.02   0.01
  51   7    -0.01  -0.01   0.01     0.02  -0.03   0.01     0.00  -0.01   0.00
  52   1     0.01   0.04  -0.02     0.01   0.04  -0.02     0.01   0.03  -0.02
  53   1     0.02  -0.01   0.00    -0.08   0.07  -0.01    -0.01   0.01  -0.00
                    145                    146                    147
                        a                      a                      a 
 Frequencies --  3498.9913              3502.5097              3511.6029
 Red. masses --     1.4505                 1.4629                 2.0553
 Frc consts  --     0.0000                 0.0000                 0.0000
 IR Inten    --    18.3981                17.5203                63.7867
 Raman Activ --     0.0000                 0.0000                 0.0000
 Depolar     --     0.0000                 0.0000                 0.0000
 Atom AN      X      Y      Z        X      Y      Z        X      Y      Z
   1   8    -0.00   0.00   0.00    -0.00   0.00  -0.00     0.00  -0.00  -0.00
   2   6     0.00  -0.00  -0.00    -0.00  -0.00   0.00    -0.00   0.00   0.00
   3   1    -0.00  -0.00   0.00    -0.00  -0.00  -0.00     0.00  -0.00   0.00
   4   1     0.00   0.00   0.00     0.00   0.00  -0.00     0.00  -0.00  -0.00
   5   6     0.00  -0.00  -0.00    -0.00   0.00  -0.00    -0.00   0.00   0.00
   6   1     0.00  -0.00  -0.00     0.00  -0.00   0.00    -0.00  -0.00  -0.00
   7   1    -0.00  -0.00   0.00     0.00  -0.00  -0.00     0.00   0.00  -0.00
   8   7    -0.00   0.00   0.00    -0.00  -0.00   0.00     0.00  -0.00  -0.00
   9   6    -0.00   0.00  -0.00     0.00  -0.00  -0.00     0.00  -0.00   0.00
  10   1     0.00   0.00   0.00    -0.00   0.00   0.00    -0.00  -0.00   0.00
  11   1     0.00   0.00  -0.00    -0.00  -0.00   0.00    -0.00  -0.00   0.00
  12   1     0.00  -0.00   0.00    -0.00   0.00  -0.00    -0.00   0.00  -0.00
  13   6     0.00   0.00  -0.00    -0.00   0.00  -0.00    -0.00  -0.00  -0.00
  14   1     0.00   0.00   0.00     0.00   0.00   0.00     0.00   0.00   0.00
  15   1     0.00  -0.00   0.00     0.00  -0.00   0.00     0.00   0.00  -0.00
  16   1    -0.00  -0.00   0.00     0.00  -0.00   0.00     0.00  -0.00  -0.00
  17   6     0.00   0.00  -0.00     0.00   0.00  -0.00    -0.00  -0.00   0.00
  18   1    -0.00  -0.00   0.00    -0.00   0.00   0.00     0.00  -0.00  -0.00
  19   1     0.00   0.00  -0.00     0.00  -0.00   0.00     0.00  -0.00   0.00
  20   1     0.00   0.00   0.00    -0.00  -0.00  -0.00    -0.00  -0.00   0.00
  21   1     0.00   0.00  -0.00     0.00  -0.00   0.00    -0.00   0.00   0.00
  22   6     0.00  -0.00  -0.00     0.00  -0.00   0.00     0.00  -0.00  -0.00
  23   8    -0.00   0.00  -0.00    -0.00   0.00  -0.00    -0.00   0.00   0.00
  24   7    -0.01   0.00   0.01    -0.00   0.00  -0.00    -0.00   0.00  -0.00
  25   1     0.01  -0.00  -0.02    -0.00   0.00   0.00    -0.00   0.00   0.01
  26   1     0.04  -0.01   0.00     0.00  -0.00   0.00     0.01  -0.00   0.00
  27   7     0.10  -0.05  -0.15    -0.00   0.00   0.00    -0.01   0.00   0.01
  28   1    -0.58   0.42  -0.04     0.00  -0.00   0.00     0.03  -0.02   0.00
  29   1     0.20  -0.25   0.58    -0.00   0.00  -0.00    -0.01   0.01  -0.02
  30   6    -0.00  -0.00   0.00    -0.00  -0.00   0.00    -0.00  -0.00  -0.00
  31   8     0.00   0.00  -0.00     0.00   0.00  -0.00     0.00   0.00   0.00
  32   7    -0.00  -0.00  -0.00    -0.03  -0.00  -0.04     0.01   0.00   0.01
  33   1     0.00  -0.00   0.00     0.04  -0.12   0.17    -0.01   0.02  -0.03
  34   1     0.00   0.00  -0.00     0.07   0.13  -0.02    -0.01  -0.03   0.00
  35   7     0.00  -0.00   0.00     0.03  -0.11   0.14    -0.00   0.01  -0.01
  36   1     0.00   0.00  -0.00     0.32   0.59  -0.06    -0.02  -0.04   0.00
  37   1    -0.00  -0.00  -0.00    -0.44  -0.19  -0.45     0.02   0.01   0.02
  38   6     0.00   0.00  -0.00    -0.00   0.00  -0.00     0.00  -0.00   0.00
  39   8    -0.00  -0.00   0.00     0.00  -0.00   0.00     0.00   0.00  -0.00
  40   7    -0.00   0.01  -0.00    -0.00   0.01  -0.01     0.00  -0.01   0.01
  41   1     0.01  -0.02  -0.01     0.00  -0.00  -0.00    -0.01   0.02   0.01
  42   1     0.00  -0.01   0.01     0.01  -0.02   0.03    -0.01   0.03  -0.03
  43   7    -0.00   0.00   0.00    -0.01   0.00   0.00     0.01  -0.00  -0.00
  44   1     0.00  -0.00   0.00     0.00  -0.01   0.02    -0.00   0.01  -0.01
  45   1     0.00  -0.00  -0.00     0.02  -0.00  -0.02    -0.02   0.00   0.03
  46   6    -0.00  -0.00   0.00    -0.00  -0.00   0.00     0.00  -0.01   0.00
  47   8     0.00   0.00  -0.00     0.00   0.00  -0.00     0.00   0.00  -0.00
  48   7     0.00  -0.00  -0.00    -0.00   0.00   0.00     0.02  -0.01  -0.02
  49   1    -0.00   0.00   0.00     0.01  -0.00  -0.01    -0.08   0.01   0.08
  50   1     0.00   0.00  -0.00    -0.01  -0.01   0.01     0.01   0.03  -0.02
  51   7    -0.00  -0.01   0.01     0.00  -0.02   0.01     0.01  -0.26   0.11
  52   1     0.01   0.04  -0.02     0.02   0.06  -0.03     0.22   0.76  -0.39
  53   1     0.00  -0.00   0.00    -0.02   0.02  -0.00    -0.26   0.22  -0.02
                    148                    149                    150
                        a                      a                      a 
 Frequencies --  3526.5063              3534.6962              3552.0993
 Red. masses --     1.9700                 2.0263                 2.1310
 Frc consts  --     0.0000                 0.0000                 0.0000
 IR Inten    --    22.6368                29.1553                27.3336
 Raman Activ --     0.0000                 0.0000                 0.0000
 Depolar     --     0.0000                 0.0000                 0.0000
 Atom AN      X      Y      Z        X      Y      Z        X      Y      Z
   1   8    -0.00   0.00  -0.00     0.00  -0.00   0.00     0.00  -0.00   0.00
   2   6     0.00   0.00  -0.00     0.00   0.00  -0.00     0.00  -0.00   0.00
   3   1     0.00  -0.00  -0.00     0.00  -0.00  -0.00     0.00  -0.00   0.00
   4   1    -0.00  -0.00   0.00     0.00   0.00  -0.00     0.00  -0.00  -0.00
   5   6    -0.00   0.00   0.00    -0.00  -0.00   0.00     0.00  -0.00   0.00
   6   1     0.00  -0.00   0.00     0.00   0.00  -0.00    -0.00   0.00  -0.00
   7   1    -0.00  -0.00  -0.00     0.00  -0.00   0.00     0.00  -0.00   0.00
   8   7     0.00   0.00  -0.00     0.00  -0.00   0.00    -0.00   0.00  -0.00
   9   6    -0.00   0.00  -0.00     0.00  -0.00   0.00     0.00  -0.00   0.00
  10   1    -0.00  -0.00  -0.00    -0.00  -0.00  -0.00    -0.00  -0.00   0.00
  11   1     0.00  -0.00   0.00     0.00  -0.00   0.00     0.00  -0.00   0.00
  12   1    -0.00   0.00  -0.00    -0.00   0.00  -0.00    -0.00   0.00  -0.00
  13   6    -0.00   0.00   0.00     0.00  -0.00   0.00     0.00  -0.00   0.00
  14   1    -0.00  -0.00  -0.00    -0.00   0.00   0.00     0.00  -0.00   0.00
  15   1    -0.00  -0.00   0.00     0.00   0.00  -0.00     0.00   0.00  -0.00
  16   1     0.00   0.00  -0.00     0.00  -0.00  -0.00     0.00  -0.00   0.00
  17   6    -0.00  -0.00   0.00    -0.00  -0.00  -0.00    -0.00  -0.00   0.00
  18   1     0.00   0.00  -0.00     0.00  -0.00  -0.00     0.00  -0.00  -0.00
  19   1     0.00   0.00   0.00    -0.00  -0.00   0.00    -0.00  -0.00   0.00
  20   1    -0.00  -0.00  -0.00     0.00  -0.00   0.00     0.00   0.00   0.00
  21   1     0.00  -0.01   0.00    -0.00   0.00  -0.00    -0.00   0.00  -0.00
  22   6     0.01  -0.00  -0.00     0.00  -0.00  -0.00     0.00  -0.00  -0.00
  23   8    -0.00   0.00   0.00    -0.00   0.00   0.00    -0.00   0.00  -0.00
  24   7     0.25  -0.10  -0.01     0.00  -0.00  -0.00     0.00  -0.00  -0.00
  25   1    -0.08   0.03   0.17    -0.00   0.00   0.00    -0.00   0.00   0.00
  26   1    -0.88   0.32  -0.10    -0.00   0.00  -0.00    -0.00   0.00  -0.00
  27   7    -0.01   0.01  -0.02    -0.00   0.00  -0.00    -0.00   0.00  -0.00
  28   1     0.01  -0.01  -0.00     0.00  -0.00   0.00     0.00  -0.00   0.00
  29   1     0.02  -0.03   0.07     0.00  -0.00   0.00     0.00  -0.00   0.00
  30   6    -0.00  -0.00   0.00    -0.00  -0.00   0.00    -0.00  -0.00   0.00
  31   8     0.00   0.00  -0.00     0.00   0.00  -0.00     0.00   0.00  -0.00
  32   7    -0.00  -0.00  -0.00     0.00   0.00   0.00     0.00   0.00  -0.00
  33   1     0.00  -0.00   0.00    -0.00   0.01  -0.01     0.00  -0.00   0.00
  34   1     0.00   0.00  -0.00    -0.01  -0.02   0.00    -0.01  -0.01   0.00
  35   7     0.00  -0.00   0.00     0.00   0.00  -0.00     0.00   0.00   0.00
  36   1     0.00   0.00  -0.00    -0.01  -0.01   0.00    -0.01  -0.01   0.00
  37   1    -0.00  -0.00  -0.00     0.00   0.00   0.00    -0.00  -0.00  -0.00
  38   6    -0.00  -0.00   0.00    -0.00  -0.00   0.01    -0.00  -0.00   0.00
  39   8    -0.00   0.00  -0.00     0.00   0.00  -0.00     0.00   0.00  -0.00
  40   7     0.00  -0.00  -0.00     0.00  -0.01   0.01     0.00  -0.00   0.00
  41   1    -0.00   0.00   0.00    -0.00   0.01   0.00    -0.00   0.00   0.00
  42   1    -0.00   0.00  -0.00    -0.01   0.03  -0.03    -0.00   0.01  -0.01
  43   7     0.00   0.00  -0.00    -0.15  -0.02   0.23    -0.01  -0.00   0.01
  44   1     0.00  -0.00   0.00    -0.06   0.15  -0.22    -0.00   0.01  -0.02
  45   1    -0.00   0.00   0.00     0.63  -0.06  -0.66     0.03  -0.00  -0.03
  46   6    -0.00  -0.00   0.00     0.00   0.00  -0.00    -0.01  -0.00   0.01
  47   8     0.00   0.00  -0.00    -0.00  -0.00   0.00     0.00   0.00  -0.00
  48   7     0.00  -0.00  -0.00     0.01   0.00  -0.01    -0.20  -0.08   0.20
  49   1    -0.00   0.00   0.00    -0.04   0.00   0.04     0.60  -0.07  -0.58
  50   1    -0.00  -0.00   0.00    -0.01  -0.01   0.01     0.15   0.39  -0.18
  51   7     0.00  -0.00   0.00    -0.00  -0.00   0.00     0.00  -0.02   0.01
  52   1     0.00   0.01  -0.00     0.00   0.02  -0.01     0.02   0.07  -0.03
  53   1    -0.00   0.00  -0.00    -0.00   0.00  -0.00    -0.02   0.02  -0.00
                    151                    152                    153
                        a                      a                      a 
 Frequencies --  3558.8929              3565.4630              3567.6985
 Red. masses --     2.1851                 2.1831                 2.1827
 Frc consts  --     0.0000                 0.0000                 0.0000
 IR Inten    --    19.5876                13.6710                22.5371
 Raman Activ --     0.0000                 0.0000                 0.0000
 Depolar     --     0.0000                 0.0000                 0.0000
 Atom AN      X      Y      Z        X      Y      Z        X      Y      Z
   1   8     0.00  -0.00   0.00    -0.00   0.00  -0.00     0.00   0.00   0.00
   2   6     0.00   0.00  -0.00     0.00   0.00   0.00    -0.00  -0.00   0.00
   3   1     0.00  -0.00   0.00     0.00   0.00  -0.00     0.00  -0.00   0.00
   4   1    -0.00   0.00  -0.00    -0.00   0.00   0.00    -0.00  -0.00  -0.00
   5   6    -0.00  -0.00   0.00    -0.00   0.00   0.00    -0.00  -0.00   0.00
   6   1     0.00   0.00   0.00    -0.00  -0.00   0.00    -0.00   0.00  -0.00
   7   1    -0.00  -0.00  -0.00    -0.00   0.00  -0.00     0.00  -0.00  -0.00
   8   7    -0.00  -0.00  -0.00     0.00   0.00  -0.00    -0.00   0.00  -0.00
   9   6    -0.00   0.00  -0.00    -0.00   0.00  -0.00     0.00  -0.00   0.00
  10   1    -0.00  -0.00  -0.00    -0.00  -0.00  -0.00     0.00  -0.00   0.00
  11   1     0.00   0.00   0.00     0.00  -0.00   0.00    -0.00  -0.00  -0.00
  12   1     0.00  -0.00   0.00    -0.00   0.00   0.00    -0.00   0.00  -0.00
  13   6     0.00   0.00   0.00    -0.00  -0.00   0.00     0.00  -0.00   0.00
  14   1    -0.00  -0.00  -0.00    -0.00  -0.00  -0.00     0.00  -0.00   0.00
  15   1     0.00  -0.00   0.00    -0.00   0.00  -0.00     0.00   0.00  -0.00
  16   1     0.00   0.00  -0.00     0.00   0.00  -0.00     0.00  -0.00   0.00
  17   6    -0.00   0.00   0.00    -0.00  -0.00  -0.00    -0.00   0.00  -0.00
  18   1     0.00   0.00  -0.00     0.00   0.00  -0.00    -0.00  -0.00   0.00
  19   1    -0.00   0.00   0.00     0.00   0.00   0.00     0.00  -0.00   0.00
  20   1    -0.00  -0.00  -0.00    -0.00  -0.00  -0.00    -0.00  -0.00  -0.00
  21   1    -0.00   0.00  -0.00     0.00  -0.00   0.00     0.00  -0.00  -0.00
  22   6    -0.00   0.00   0.00     0.01  -0.01   0.01    -0.00   0.00  -0.00
  23   8     0.00  -0.00  -0.00    -0.00   0.00  -0.00     0.00  -0.00   0.00
  24   7     0.00  -0.00  -0.00     0.02  -0.01  -0.00    -0.00   0.00   0.00
  25   1    -0.00   0.00   0.00    -0.01   0.00   0.01     0.00  -0.00  -0.00
  26   1    -0.00   0.00  -0.00    -0.06   0.02  -0.01     0.00  -0.00   0.00
  27   7     0.00  -0.00   0.00     0.19  -0.17   0.16    -0.00   0.00  -0.00
  28   1    -0.00   0.00  -0.00    -0.52   0.38  -0.01     0.00  -0.00   0.00
  29   1    -0.00   0.00  -0.00    -0.19   0.25  -0.62     0.00  -0.00   0.00
  30   6    -0.00   0.01  -0.01    -0.00  -0.00  -0.00    -0.01  -0.01  -0.00
  31   8    -0.00  -0.00   0.00     0.00   0.00   0.00     0.00   0.00   0.00
  32   7     0.07   0.24  -0.13    -0.00  -0.00   0.00    -0.02  -0.09   0.05
  33   1     0.11  -0.30   0.44    -0.00   0.00  -0.00    -0.04   0.11  -0.16
  34   1    -0.36  -0.61   0.07     0.00   0.00  -0.00     0.13   0.22  -0.03
  35   7    -0.07  -0.07  -0.04    -0.00  -0.00  -0.00    -0.19  -0.19  -0.10
  36   1     0.10   0.19  -0.03     0.00   0.00  -0.00     0.29   0.55  -0.08
  37   1     0.16   0.06   0.17     0.00   0.00   0.00     0.43   0.16   0.45
  38   6     0.00   0.00  -0.00    -0.00  -0.00   0.00    -0.00  -0.00   0.00
  39   8    -0.00  -0.00   0.00    -0.00   0.00  -0.00     0.00   0.00  -0.00
  40   7    -0.00   0.00  -0.00     0.00  -0.00   0.00     0.00  -0.00   0.00
  41   1    -0.00   0.00   0.00    -0.00   0.01   0.00    -0.00   0.00   0.00
  42   1     0.00  -0.01   0.01    -0.00   0.00  -0.00    -0.00   0.01  -0.01
  43   7    -0.00   0.00  -0.00    -0.00  -0.00   0.00    -0.00  -0.00   0.00
  44   1     0.00  -0.01   0.01    -0.00   0.00  -0.00    -0.00   0.01  -0.01
  45   1    -0.00   0.00   0.00     0.00  -0.00  -0.00     0.00  -0.00  -0.00
  46   6     0.00  -0.00   0.00    -0.00  -0.00   0.00    -0.00  -0.00   0.00
  47   8    -0.00   0.00  -0.00     0.00  -0.00   0.00     0.00  -0.00   0.00
  48   7     0.00   0.00  -0.00    -0.00  -0.00   0.00    -0.00  -0.00   0.00
  49   1    -0.00   0.00   0.00     0.00  -0.00  -0.00     0.01  -0.00  -0.01
  50   1    -0.00  -0.00   0.00     0.00   0.00  -0.00     0.01   0.01  -0.01
  51   7    -0.00   0.00  -0.00     0.00  -0.00   0.00    -0.00  -0.00   0.00
  52   1    -0.00  -0.00   0.00     0.00   0.00  -0.00     0.00   0.01  -0.00
  53   1     0.00  -0.00   0.00    -0.01   0.01  -0.00    -0.00   0.00  -0.00
