 Entering Gaussian System
 *********************************************
 Gaussian 98:
 frequency output generated by the xtb code
 *********************************************
                         Standard orientation:
 --------------------------------------------------------------------
  Center     Atomic     Atomic              Coordinates (Angstroms)
  Number     Number      Type              X           Y           Z
 --------------------------------------------------------------------
    1          8             0       -0.126017   -1.023939    2.220524
    2          6             0       -0.892533   -1.078332    1.046769
    3          1             0       -1.575616   -1.921608    1.163002
    4          1             0       -1.501283   -0.173784    0.942801
    5          6             0       -0.026165   -1.193543   -0.213292
    6          1             0        0.915264   -0.680333   -0.013900
    7          1             0       -0.539215   -0.721507   -1.055231
    8          7             0        0.337329   -2.568798   -0.647750
    9          6             0        1.012821   -3.288347    0.441544
   10          1             0        1.932532   -2.760394    0.689428
   11          1             0        1.250255   -4.303765    0.130796
   12          1             0        0.383327   -3.316622    1.327439
   13          6             0        1.265493   -2.424732   -1.783091
   14          1             0        2.157639   -1.893414   -1.453901
   15          1             0        0.772511   -1.862687   -2.574377
   16          1             0        1.551919   -3.404708   -2.159589
   17          6             0       -0.856342   -3.294381   -1.106559
   18          1             0       -1.535279   -3.480307   -0.278573
   19          1             0       -0.568193   -4.249816   -1.540742
   20          1             0       -1.363870   -2.690004   -1.858647
   21          1             0        0.370805   -0.191822    2.195910
   22          6             0        3.663762   -0.701705    1.523370
   23          8             0        3.207760   -0.888287    0.391670
   24          7             0        3.211397    0.283037    2.314828
   25          1             0        2.416855    0.838624    1.996454
   26          1             0        3.539584    0.396423    3.255839
   27          7             0        4.624380   -1.511288    2.035872
   28          1             0        5.097443   -1.276675    2.890069
   29          1             0        5.089173   -2.146604    1.410824
   30          6             0        1.061637    1.858260    0.007976
   31          8             0        0.920041    1.493076    1.189109
   32          7             0        2.180459    1.552958   -0.679239
   33          1             0        2.786875    0.823233   -0.316762
   34          1             0        2.269097    1.801501   -1.647710
   35          7             0        0.129017    2.594525   -0.615362
   36          1             0        0.223769    2.799010   -1.594150
   37          1             0       -0.815113    2.603225   -0.225011
   38          6             0       -2.312827    0.179712   -3.179729
   39          8             0       -1.475928   -0.619077   -2.768835
   40          7             0       -2.844076    0.062359   -4.422912
   41          1             0       -2.471154   -0.636919   -5.039479
   42          1             0       -3.455954    0.756916   -4.810186
   43          7             0       -2.754125    1.226471   -2.451650
   44          1             0       -3.512613    1.792051   -2.788063
   45          1             0       -2.528514    1.318430   -1.470751
   46          6             0       -2.565675    2.257071    1.571695
   47          8             0       -2.426052    2.078866    0.357987
   48          7             0       -1.517168    2.277246    2.409976
   49          1             0       -0.587123    2.073333    2.043155
   50          1             0       -1.637242    2.377421    3.400755
   51          7             0       -3.793817    2.417099    2.119413
   52          1             0       -3.913241    2.673951    3.082234
   53          1             0       -4.581404    2.513045    1.503545
 --------------------------------------------------------------------
     1 basis functions        1 primitive gaussians
     1 alpha electrons        1 beta electrons

 Harmonic frequencies (cm**-1), IR intensities (km*mol⁻¹),
 Raman scattering activities (A**4/amu), Raman depolarization ratios,
 reduced masses (AMU), force constants (mDyne/A) and normal coordinates:
                      1                      2                      3
                        a                      a                      a 
 Frequencies --    14.8860                27.2040                31.6514
 Red. masses --    12.1023                11.1685                12.2201
 Frc consts  --     0.0000                 0.0000                 0.0000
 IR Inten    --     0.1673                 1.4043                 2.0438
 Raman Activ --     0.0000                 0.0000                 0.0000
 Depolar     --     0.0000                 0.0000                 0.0000
 Atom AN      X      Y      Z        X      Y      Z        X      Y      Z
   1   8    -0.03  -0.00  -0.13    -0.32   0.12  -0.21     0.16  -0.06   0.03
   2   6     0.02   0.04  -0.15    -0.09   0.13  -0.31     0.09  -0.05   0.05
   3   1    -0.00   0.02  -0.06    -0.06   0.06  -0.11     0.04  -0.02   0.02
   4   1     0.01   0.02  -0.04     0.01   0.06  -0.13     0.02  -0.02   0.03
   5   6     0.07   0.05  -0.11     0.11  -0.03  -0.16     0.06   0.00   0.02
   6   1     0.02   0.02  -0.02     0.03  -0.02  -0.02     0.02  -0.01   0.01
   7   1     0.03   0.02  -0.04     0.07  -0.02  -0.08     0.01   0.02   0.02
   8   7     0.09   0.06  -0.11     0.09  -0.10   0.02     0.04   0.03  -0.08
   9   6     0.04   0.05  -0.08    -0.13  -0.03   0.19     0.05  -0.05  -0.13
  10   1     0.01   0.01  -0.01    -0.03  -0.02   0.07     0.01  -0.02  -0.03
  11   1     0.01   0.01  -0.02    -0.05  -0.02   0.09     0.01  -0.01  -0.06
  12   1     0.00   0.01  -0.03    -0.07   0.03   0.03     0.02  -0.03  -0.04
  13   6     0.13   0.05  -0.07     0.26  -0.26   0.14     0.01   0.09  -0.08
  14   1     0.03   0.02  -0.01     0.07  -0.07   0.06     0.01   0.02  -0.02
  15   1     0.05   0.01  -0.03     0.12  -0.10  -0.00     0.00   0.05  -0.01
  16   1     0.04   0.02  -0.02     0.08  -0.09   0.09    -0.00   0.03  -0.05
  17   6     0.10   0.05  -0.15     0.10  -0.06  -0.08     0.02   0.07  -0.10
  18   1     0.02   0.01  -0.05     0.00   0.00  -0.04     0.00   0.02  -0.03
  19   1     0.03   0.02  -0.05     0.03  -0.02  -0.00    -0.00   0.02  -0.04
  20   1     0.03   0.02  -0.04     0.06  -0.02  -0.05     0.01   0.03  -0.02
  21   1    -0.00  -0.00  -0.02    -0.06   0.02  -0.03     0.03  -0.01   0.01
  22   6    -0.01  -0.05   0.13     0.03   0.02  -0.03    -0.08   0.00   0.08
  23   8     0.06   0.01   0.11     0.01   0.00  -0.03    -0.03  -0.00   0.07
  24   7    -0.03  -0.07   0.15    -0.03  -0.03  -0.01    -0.03   0.09   0.01
  25   1     0.00  -0.01   0.03    -0.01  -0.01   0.00     0.00   0.03  -0.01
  26   1    -0.02  -0.04   0.05     0.00   0.00  -0.01    -0.03   0.02   0.01
  27   7    -0.07  -0.11   0.17     0.10   0.08  -0.07    -0.21  -0.08   0.19
  28   1    -0.03  -0.04   0.05     0.03   0.03  -0.02    -0.06  -0.02   0.06
  29   1    -0.01  -0.03   0.04     0.03   0.03  -0.02    -0.06  -0.04   0.07
  30   6     0.11   0.04   0.08    -0.06  -0.03   0.01    -0.07  -0.09  -0.10
  31   8     0.06   0.00   0.08    -0.02  -0.01   0.02    -0.00   0.04  -0.07
  32   7     0.17   0.08   0.15    -0.06   0.00  -0.01    -0.05  -0.06  -0.10
  33   1     0.04   0.02   0.04    -0.01   0.01  -0.00     0.00   0.01  -0.01
  34   1     0.06   0.03   0.04    -0.03  -0.01  -0.01    -0.03  -0.05  -0.04
  35   7     0.14   0.04   0.05    -0.11  -0.09   0.01    -0.17  -0.29  -0.18
  36   1     0.05   0.02   0.02    -0.04  -0.03   0.00    -0.06  -0.11  -0.06
  37   1     0.03   0.01   0.00    -0.02  -0.02   0.01    -0.04  -0.08  -0.03
  38   6    -0.23  -0.10   0.04     0.02   0.00  -0.02     0.04   0.02   0.02
  39   8    -0.09   0.02  -0.04     0.05  -0.02  -0.13     0.23   0.18  -0.04
  40   7    -0.45  -0.27   0.14    -0.03   0.10  -0.01     0.14   0.04  -0.03
  41   1    -0.11  -0.06   0.03    -0.01   0.04  -0.02     0.09   0.05  -0.02
  42   1    -0.14  -0.09   0.05    -0.01   0.03   0.02    -0.01  -0.02   0.01
  43   7    -0.26  -0.12   0.04     0.04  -0.05   0.07    -0.26  -0.19   0.12
  44   1    -0.10  -0.06   0.03     0.00  -0.01   0.04    -0.09  -0.08   0.04
  45   1    -0.02  -0.00  -0.00     0.01  -0.04   0.02    -0.07  -0.05   0.03
  46   6     0.05   0.05  -0.06     0.01   0.05   0.14     0.02   0.06   0.07
  47   8     0.10   0.07  -0.07    -0.05  -0.08   0.17    -0.09  -0.21   0.11
  48   7     0.01   0.02  -0.02     0.05   0.14   0.10     0.09   0.16  -0.01
  49   1     0.01   0.00   0.00     0.01   0.02   0.02     0.01   0.02  -0.01
  50   1    -0.01   0.01  -0.01     0.02   0.06   0.03     0.05   0.11  -0.01
  51   7     0.03   0.09  -0.12     0.03   0.14   0.19     0.08   0.28   0.14
  52   1    -0.00   0.02  -0.03     0.02   0.05   0.05     0.04   0.12   0.03
  53   1     0.02   0.03  -0.04     0.00   0.01   0.06     0.01   0.04   0.05
                      4                      5                      6
                        a                      a                      a 
 Frequencies --    36.1626                39.5860                42.8763
 Red. masses --    12.3917                12.6277                12.5371
 Frc consts  --     0.0000                 0.0000                 0.0000
 IR Inten    --     4.2313                 1.9038                 2.2847
 Raman Activ --     0.0000                 0.0000                 0.0000
 Depolar     --     0.0000                 0.0000                 0.0000
 Atom AN      X      Y      Z        X      Y      Z        X      Y      Z
   1   8     0.11   0.28  -0.08    -0.14   0.01   0.02     0.13  -0.11  -0.12
   2   6     0.08   0.15  -0.05    -0.06  -0.02  -0.02     0.05  -0.10  -0.06
   3   1     0.02   0.05   0.01    -0.02  -0.01  -0.01     0.02  -0.03  -0.01
   4   1     0.02   0.04  -0.03    -0.02  -0.01  -0.02     0.01  -0.03  -0.01
   5   6     0.06   0.05  -0.06     0.00  -0.01   0.02    -0.01  -0.09  -0.11
   6   1     0.02   0.01  -0.03     0.00  -0.02   0.03    -0.01  -0.00  -0.05
   7   1     0.02   0.00  -0.02     0.02   0.01   0.00    -0.03  -0.05  -0.03
   8   7     0.00   0.01   0.03    -0.02  -0.00  -0.00     0.07  -0.08  -0.08
   9   6    -0.03   0.04   0.07    -0.11  -0.06   0.01     0.18   0.01  -0.09
  10   1    -0.00   0.01   0.01    -0.03  -0.02   0.03     0.04   0.03  -0.04
  11   1    -0.02   0.00   0.04    -0.03  -0.01  -0.00     0.07   0.01  -0.02
  12   1    -0.01   0.03   0.02    -0.05  -0.02  -0.01     0.06  -0.00  -0.02
  13   6     0.01  -0.10   0.02     0.05   0.00   0.06    -0.00  -0.05  -0.13
  14   1     0.01  -0.03  -0.01     0.02  -0.02   0.04    -0.01   0.00  -0.06
  15   1     0.01  -0.04  -0.01     0.04   0.02   0.01    -0.02  -0.03  -0.04
  16   1    -0.01  -0.04   0.02     0.01   0.00   0.01     0.01  -0.01  -0.03
  17   6    -0.03   0.03   0.07    -0.02   0.06  -0.10     0.09  -0.18   0.02
  18   1    -0.01   0.03   0.02    -0.02   0.01  -0.04     0.05  -0.06   0.02
  19   1    -0.02  -0.00   0.03    -0.01   0.02  -0.04     0.04  -0.05   0.01
  20   1    -0.00   0.00   0.01     0.01   0.03  -0.03    -0.00  -0.07   0.01
  21   1     0.02   0.07  -0.04    -0.02  -0.01   0.00     0.03  -0.02  -0.04
  22   6    -0.13  -0.04   0.02     0.05   0.07   0.12    -0.03   0.08   0.14
  23   8    -0.07   0.07  -0.02    -0.01  -0.16   0.20     0.01   0.02   0.15
  24   7     0.01   0.07  -0.02     0.05   0.18  -0.01    -0.00   0.18   0.05
  25   1     0.02   0.04  -0.01     0.00   0.02  -0.01    -0.00   0.04   0.00
  26   1    -0.03  -0.02   0.01     0.03   0.10  -0.01    -0.02   0.05   0.02
  27   7    -0.39  -0.28   0.14     0.16   0.24   0.19    -0.10   0.08   0.26
  28   1    -0.11  -0.09   0.04     0.05   0.10   0.04    -0.03   0.03   0.07
  29   1    -0.11  -0.09   0.04     0.03   0.03   0.08    -0.03   0.00   0.09
  30   6     0.04   0.10  -0.06     0.01  -0.11  -0.14    -0.04  -0.06  -0.05
  31   8     0.09   0.18  -0.05     0.02  -0.04  -0.13    -0.04  -0.03  -0.04
  32   7     0.04   0.11  -0.08    -0.05  -0.30  -0.17    -0.07  -0.12  -0.06
  33   1     0.02   0.04  -0.01    -0.02  -0.07  -0.03    -0.01  -0.02  -0.00
  34   1     0.00   0.02  -0.03    -0.01  -0.09  -0.05    -0.01  -0.03  -0.01
  35   7    -0.00   0.03  -0.08     0.07  -0.06  -0.16    -0.04  -0.05  -0.05
  36   1    -0.01  -0.00  -0.03     0.01  -0.04  -0.05    -0.02  -0.02  -0.02
  37   1     0.00   0.01  -0.01     0.02   0.02  -0.03    -0.01  -0.00  -0.01
  38   6    -0.01  -0.01  -0.01    -0.04   0.15   0.05    -0.08   0.03   0.00
  39   8    -0.06  -0.06  -0.02     0.08   0.29   0.05    -0.38  -0.25   0.03
  40   7    -0.01   0.05  -0.02    -0.12   0.03   0.10    -0.12   0.18   0.01
  41   1    -0.02   0.01  -0.01    -0.01   0.02   0.03    -0.11   0.00   0.01
  42   1     0.01   0.02  -0.00    -0.05  -0.01   0.02     0.02   0.09  -0.00
  43   7     0.06   0.01  -0.00    -0.12   0.14   0.04     0.30   0.24  -0.05
  44   1     0.02   0.01   0.00    -0.05   0.01   0.01     0.11   0.11  -0.01
  45   1     0.01  -0.01   0.00    -0.02   0.06   0.00     0.05   0.03  -0.00
  46   6     0.05  -0.16   0.05     0.05  -0.08  -0.03     0.01   0.06   0.05
  47   8     0.05  -0.11   0.04     0.06   0.17  -0.07    -0.01   0.06   0.05
  48   7     0.09   0.07   0.01     0.07  -0.11  -0.05     0.03  -0.01   0.04
  49   1     0.03   0.05  -0.00     0.02  -0.01  -0.02     0.00  -0.01   0.00
  50   1     0.02  -0.02   0.01     0.02  -0.10  -0.01     0.01   0.01   0.01
  51   7     0.04  -0.49   0.11     0.04  -0.35   0.02     0.04   0.17   0.07
  52   1     0.01  -0.13   0.03     0.01  -0.12   0.01     0.02   0.04   0.02
  53   1     0.00  -0.16   0.04     0.01  -0.07   0.01     0.01   0.05   0.02
                      7                      8                      9
                        a                      a                      a 
 Frequencies --    45.8042                56.3446                59.3494
 Red. masses --    12.5936                12.9567                12.2218
 Frc consts  --     0.0000                 0.0000                 0.0000
 IR Inten    --     4.0947                 1.0544                 2.5452
 Raman Activ --     0.0000                 0.0000                 0.0000
 Depolar     --     0.0000                 0.0000                 0.0000
 Atom AN      X      Y      Z        X      Y      Z        X      Y      Z
   1   8    -0.04   0.09  -0.07     0.08   0.04  -0.03    -0.27  -0.12   0.07
   2   6    -0.09   0.08  -0.03     0.08   0.02  -0.03    -0.20  -0.10   0.04
   3   1    -0.03   0.03   0.00     0.02   0.01  -0.01    -0.04  -0.04  -0.00
   4   1    -0.02   0.02  -0.00     0.03   0.01  -0.02    -0.07  -0.04   0.02
   5   6    -0.15   0.06  -0.07     0.09  -0.04  -0.02    -0.16   0.02   0.06
   6   1    -0.05   0.03  -0.04     0.02  -0.01  -0.02    -0.07   0.04   0.02
   7   1    -0.06   0.01  -0.02     0.02  -0.02  -0.01    -0.06  -0.01   0.02
   8   7    -0.14   0.06  -0.04     0.08  -0.07   0.06     0.03   0.08   0.04
   9   6    -0.05   0.13  -0.05     0.05  -0.02   0.10     0.10   0.14   0.03
  10   1    -0.02   0.06  -0.03     0.02  -0.01   0.02     0.02   0.06   0.00
  11   1    -0.00   0.04  -0.01     0.01  -0.01   0.05     0.06   0.05   0.01
  12   1    -0.00   0.04  -0.00     0.01   0.01   0.03     0.03   0.02   0.01
  13   6    -0.20   0.05  -0.09     0.10  -0.14   0.06     0.02   0.23   0.05
  14   1    -0.05   0.02  -0.05     0.03  -0.04   0.01    -0.01   0.09   0.02
  15   1    -0.07   0.01  -0.02     0.03  -0.06   0.00    -0.01   0.06   0.02
  16   1    -0.06   0.01  -0.03     0.03  -0.05   0.04     0.04   0.08   0.01
  17   6    -0.13   0.00   0.06     0.07  -0.07   0.08     0.13  -0.07   0.00
  18   1    -0.03   0.01   0.03     0.03  -0.02   0.03     0.04  -0.05  -0.00
  19   1    -0.04  -0.00   0.03     0.02  -0.02   0.02     0.08  -0.01  -0.00
  20   1    -0.05  -0.02   0.01     0.01  -0.02   0.03     0.02  -0.04   0.00
  21   1    -0.00   0.02  -0.03     0.02   0.01  -0.01    -0.07  -0.03   0.02
  22   6     0.13   0.04   0.09     0.03  -0.02  -0.02    -0.05  -0.00   0.02
  23   8    -0.00  -0.06   0.18     0.08   0.01  -0.04     0.12   0.13  -0.08
  24   7     0.24   0.12   0.06     0.01  -0.04  -0.01    -0.34  -0.24   0.14
  25   1     0.04   0.01   0.04     0.01  -0.01  -0.00    -0.07  -0.05   0.01
  26   1     0.09   0.05   0.01    -0.01  -0.02   0.00    -0.11  -0.07   0.04
  27   7     0.24   0.13   0.03     0.00  -0.05   0.00    -0.01   0.05   0.00
  28   1     0.09   0.05  -0.01    -0.01  -0.02   0.01    -0.04  -0.01   0.03
  29   1     0.04   0.01   0.01     0.01  -0.01  -0.00     0.04   0.06  -0.01
  30   6     0.08  -0.06   0.11     0.04  -0.00  -0.01     0.03   0.01  -0.12
  31   8     0.10   0.00   0.14     0.02  -0.01  -0.02    -0.02  -0.06  -0.17
  32   7     0.13  -0.02   0.16     0.09   0.07   0.03     0.03  -0.01  -0.12
  33   1     0.03  -0.00   0.05     0.03   0.02   0.01     0.00  -0.01  -0.03
  34   1     0.03  -0.02   0.04     0.03   0.02   0.01     0.02   0.02  -0.02
  35   7     0.04  -0.19   0.04     0.02  -0.07  -0.06     0.07   0.09  -0.10
  36   1     0.02  -0.06   0.01     0.02  -0.01  -0.01     0.02   0.04  -0.02
  37   1     0.01  -0.06   0.00     0.00  -0.02  -0.02     0.02   0.02  -0.03
  38   6    -0.08  -0.04  -0.12    -0.16   0.09   0.08    -0.03  -0.05   0.01
  39   8    -0.16  -0.13  -0.16    -0.31   0.03   0.22    -0.12  -0.14   0.01
  40   7     0.06   0.15  -0.21     0.27   0.35  -0.13     0.10   0.12  -0.06
  41   1     0.01   0.05  -0.06     0.08   0.09  -0.02     0.01   0.03  -0.02
  42   1     0.01   0.04  -0.04     0.05   0.07  -0.03     0.02   0.03  -0.00
  43   7    -0.14  -0.14  -0.03    -0.45  -0.08   0.14    -0.07  -0.12   0.08
  44   1    -0.02  -0.01  -0.01    -0.06   0.03  -0.01     0.01  -0.00   0.02
  45   1    -0.04  -0.06  -0.01    -0.14  -0.01   0.04    -0.02  -0.04   0.02
  46   6     0.04  -0.09   0.01    -0.05   0.01  -0.09     0.15  -0.00   0.02
  47   8     0.06  -0.31   0.04    -0.03   0.18  -0.13     0.12  -0.02   0.02
  48   7     0.05   0.16   0.00    -0.09  -0.19  -0.06     0.21   0.16  -0.04
  49   1     0.01   0.03   0.01    -0.02  -0.04  -0.02     0.05   0.03  -0.02
  50   1     0.01   0.07  -0.00    -0.03  -0.07  -0.02     0.06   0.03  -0.01
  51   7     0.03  -0.10  -0.02    -0.07   0.04  -0.13     0.17  -0.14   0.09
  52   1     0.00   0.01  -0.02    -0.02  -0.03  -0.03     0.06  -0.02   0.02
  53   1     0.01  -0.08  -0.01    -0.01   0.04  -0.04     0.04  -0.05   0.03
                     10                     11                     12
                        a                      a                      a 
 Frequencies --    62.5098                67.7694                75.3323
 Red. masses --    12.7369                12.3699                11.9920
 Frc consts  --     0.0000                 0.0000                 0.0000
 IR Inten    --     0.1361                 0.2109                 0.4181
 Raman Activ --     0.0000                 0.0000                 0.0000
 Depolar     --     0.0000                 0.0000                 0.0000
 Atom AN      X      Y      Z        X      Y      Z        X      Y      Z
   1   8    -0.01   0.06   0.08    -0.22   0.03   0.04    -0.12   0.15   0.02
   2   6     0.01   0.02   0.06    -0.17   0.00   0.02    -0.11  -0.08   0.03
   3   1     0.01  -0.00   0.02    -0.04  -0.01  -0.00     0.01  -0.06   0.03
   4   1    -0.01  -0.00   0.01    -0.06  -0.01   0.00    -0.08  -0.06  -0.00
   5   6     0.04   0.05   0.07    -0.14   0.06   0.03    -0.10   0.01   0.03
   6   1     0.01   0.02   0.03    -0.05   0.04   0.01    -0.05   0.04   0.01
   7   1     0.01   0.02   0.02    -0.04   0.00   0.00    -0.04  -0.02   0.01
   8   7     0.06   0.07   0.06    -0.02   0.09   0.06     0.10   0.06   0.03
   9   6     0.02   0.04   0.07    -0.03   0.12   0.09     0.12   0.11   0.05
  10   1     0.01   0.00   0.03    -0.02   0.05   0.04     0.02   0.06   0.02
  11   1     0.00   0.01   0.02     0.01   0.04   0.03     0.07   0.04   0.01
  12   1    -0.00   0.01   0.02    -0.02   0.02   0.02     0.03   0.01   0.01
  13   6     0.10   0.09   0.10     0.03   0.15   0.10     0.12   0.18   0.07
  14   1     0.03   0.02   0.04    -0.00   0.05   0.05     0.02   0.07   0.04
  15   1     0.04   0.03   0.02     0.01   0.04   0.02     0.03   0.05   0.02
  16   1     0.04   0.03   0.03     0.03   0.05   0.03     0.06   0.06   0.01
  17   6     0.07   0.07   0.00     0.05   0.01  -0.01     0.19  -0.07  -0.03
  18   1     0.02   0.01  -0.01     0.00  -0.00  -0.02     0.05  -0.04  -0.02
  19   1     0.03   0.03  -0.01     0.04   0.00   0.01     0.09  -0.01  -0.00
  20   1     0.02   0.03   0.01     0.02  -0.01  -0.02     0.05  -0.04  -0.02
  21   1    -0.01   0.02   0.02    -0.04  -0.00   0.00    -0.06   0.05  -0.02
  22   6     0.06  -0.07  -0.03     0.01   0.04  -0.02     0.11  -0.10  -0.07
  23   8     0.14   0.03  -0.08    -0.03   0.08  -0.01     0.13  -0.11  -0.08
  24   7    -0.06  -0.21   0.07     0.20   0.18  -0.08     0.35   0.11  -0.20
  25   1    -0.00  -0.04   0.02     0.05   0.05  -0.01     0.07   0.01  -0.03
  26   1    -0.02  -0.07   0.02     0.04   0.03  -0.01     0.06  -0.00  -0.04
  27   7     0.10  -0.07  -0.08    -0.14  -0.11   0.02    -0.09  -0.29   0.05
  28   1     0.01  -0.04  -0.01    -0.02  -0.03  -0.00    -0.01  -0.08   0.00
  29   1     0.04   0.01  -0.04    -0.06  -0.05   0.01    -0.05  -0.11   0.03
  30   6     0.01  -0.10  -0.02     0.06  -0.01  -0.06    -0.07  -0.06   0.07
  31   8     0.05   0.01   0.02     0.10  -0.05  -0.07    -0.01  -0.05   0.09
  32   7     0.10   0.07   0.05     0.13   0.17  -0.03    -0.24  -0.32  -0.07
  33   1     0.04   0.04   0.02     0.04   0.05  -0.01    -0.05  -0.07  -0.02
  34   1     0.01  -0.02   0.00     0.03   0.04  -0.01    -0.06  -0.06  -0.01
  35   7    -0.14  -0.41  -0.15    -0.04  -0.17  -0.08     0.01   0.15   0.17
  36   1    -0.04  -0.13  -0.05    -0.01  -0.03  -0.02    -0.01   0.02   0.04
  37   1    -0.03  -0.12  -0.03    -0.01  -0.05  -0.01     0.00   0.04   0.04
  38   6    -0.07   0.13   0.00     0.01  -0.03  -0.06    -0.03   0.02  -0.01
  39   8    -0.17   0.14   0.16     0.01  -0.04  -0.08    -0.03   0.03   0.00
  40   7    -0.13  -0.07   0.04    -0.03  -0.05  -0.05     0.00   0.03  -0.03
  41   1    -0.04  -0.05   0.04    -0.01  -0.01  -0.01     0.00   0.01  -0.01
  42   1     0.01  -0.00  -0.03    -0.01  -0.01  -0.01    -0.00   0.00  -0.01
  43   7     0.10   0.38  -0.23     0.05  -0.01  -0.07    -0.07   0.00  -0.01
  44   1     0.01   0.08  -0.07     0.01  -0.01  -0.01    -0.02   0.00  -0.01
  45   1    -0.02   0.09  -0.05     0.01  -0.01  -0.02    -0.02   0.00  -0.00
  46   6    -0.07  -0.06  -0.05     0.04  -0.09   0.05    -0.07   0.05  -0.03
  47   8    -0.13  -0.26  -0.04    -0.02   0.03   0.03    -0.03  -0.02  -0.02
  48   7    -0.04   0.11  -0.10     0.04  -0.60   0.06    -0.09   0.21  -0.01
  49   1    -0.01   0.02  -0.03     0.01  -0.13  -0.01    -0.02   0.04   0.01
  50   1    -0.00   0.07  -0.03     0.03  -0.13   0.02    -0.03   0.05  -0.00
  51   7    -0.06  -0.03  -0.03     0.10   0.21   0.08    -0.10  -0.00  -0.07
  52   1    -0.01   0.02  -0.01     0.04  -0.00   0.04    -0.04   0.02  -0.03
  53   1    -0.03  -0.05  -0.00     0.03   0.12   0.03    -0.02  -0.02  -0.03
                     13                     14                     15
                        a                      a                      a 
 Frequencies --    76.7865                82.5723                88.2426
 Red. masses --    12.2616                13.7468                11.5322
 Frc consts  --     0.0000                 0.0000                 0.0000
 IR Inten    --     3.6309                 8.6793                 5.0151
 Raman Activ --     0.0000                 0.0000                 0.0000
 Depolar     --     0.0000                 0.0000                 0.0000
 Atom AN      X      Y      Z        X      Y      Z        X      Y      Z
   1   8     0.05   0.28  -0.09     0.08   0.05  -0.01     0.09   0.03   0.06
   2   6     0.03   0.18  -0.06     0.04   0.08   0.01     0.09   0.10   0.04
   3   1     0.01   0.05  -0.00     0.00   0.03   0.01     0.02   0.03  -0.00
   4   1     0.01   0.05  -0.03     0.02   0.03   0.00     0.04   0.04   0.02
   5   6     0.02   0.11  -0.07     0.00   0.03  -0.01     0.12   0.12   0.05
   6   1     0.01   0.03  -0.03     0.00   0.01  -0.02     0.05   0.00   0.03
   7   1     0.01   0.02  -0.03    -0.00  -0.00  -0.00     0.05   0.07   0.02
   8   7     0.00   0.09  -0.02    -0.02   0.01   0.05    -0.01   0.13  -0.06
   9   6     0.16   0.19  -0.04    -0.02   0.04   0.07    -0.23  -0.08  -0.06
  10   1     0.06   0.06  -0.07    -0.00   0.01   0.01    -0.06  -0.06   0.04
  11   1     0.03   0.05   0.01    -0.01   0.01   0.03    -0.09  -0.02  -0.05
  12   1     0.08   0.09   0.02    -0.01   0.03   0.02    -0.10  -0.04  -0.04
  13   6    -0.15   0.03  -0.14    -0.02  -0.06   0.04     0.14   0.12   0.07
  14   1    -0.03   0.02  -0.09    -0.00  -0.02   0.00     0.05   0.00   0.06
  15   1    -0.08  -0.01  -0.03    -0.00  -0.02   0.01     0.08   0.06   0.01
  16   1    -0.05   0.00  -0.03    -0.01  -0.02   0.02     0.03   0.03   0.01
  17   6    -0.03   0.01   0.18    -0.03   0.01   0.08    -0.06   0.34  -0.27
  18   1     0.02   0.01   0.08    -0.01   0.02   0.03    -0.05   0.10  -0.11
  19   1    -0.01  -0.00   0.06    -0.02  -0.01   0.04    -0.04   0.10  -0.10
  20   1    -0.04  -0.02   0.06    -0.01  -0.01   0.02     0.03   0.14  -0.07
  21   1     0.01   0.07  -0.03     0.02   0.01   0.00     0.02   0.01   0.03
  22   6     0.08  -0.09   0.05     0.00   0.02   0.02     0.03  -0.02   0.03
  23   8     0.23  -0.01  -0.02     0.12   0.06  -0.04     0.05  -0.04   0.03
  24   7    -0.14  -0.27   0.14    -0.15  -0.08   0.05    -0.02  -0.05   0.04
  25   1    -0.02  -0.05   0.02    -0.02  -0.01  -0.01     0.00  -0.01   0.00
  26   1    -0.05  -0.08   0.04    -0.05  -0.02   0.02    -0.00  -0.00   0.01
  27   7     0.13  -0.05   0.05     0.01   0.05   0.06     0.07   0.02   0.04
  28   1     0.00  -0.03   0.04    -0.02   0.01   0.03     0.01   0.01   0.01
  29   1     0.07   0.02   0.01     0.03   0.03   0.02     0.02   0.00   0.01
  30   6    -0.04  -0.08  -0.02    -0.01   0.04  -0.05    -0.04   0.01  -0.01
  31   8     0.02   0.06   0.04     0.03   0.08  -0.04     0.04   0.08   0.02
  32   7    -0.13  -0.25  -0.07    -0.15  -0.19  -0.16    -0.15  -0.17  -0.11
  33   1    -0.02  -0.04  -0.00    -0.03  -0.04  -0.04    -0.03  -0.03  -0.02
  34   1    -0.04  -0.08  -0.02    -0.03  -0.03  -0.04    -0.04  -0.04  -0.03
  35   7    -0.06  -0.14  -0.05     0.08   0.26   0.04    -0.02   0.09   0.05
  36   1    -0.03  -0.06  -0.02    -0.00   0.03  -0.00    -0.02   0.00   0.01
  37   1    -0.01   0.00   0.01     0.02   0.04   0.01    -0.00   0.03   0.02
  38   6     0.05  -0.04  -0.05    -0.02   0.09   0.02    -0.06  -0.16  -0.02
  39   8     0.13  -0.01  -0.12     0.03   0.11  -0.07    -0.30  -0.34   0.15
  40   7    -0.00  -0.05  -0.02    -0.12   0.12   0.05     0.17  -0.07  -0.12
  41   1     0.00  -0.01  -0.01    -0.03   0.05  -0.00     0.01  -0.07  -0.00
  42   1    -0.02  -0.02   0.01    -0.03   0.04   0.03     0.06  -0.02  -0.05
  43   7     0.03  -0.09  -0.00    -0.00   0.06   0.08     0.02  -0.08  -0.10
  44   1     0.00  -0.03   0.01    -0.02   0.00   0.04     0.05   0.02  -0.06
  45   1     0.02  -0.02  -0.01     0.00  -0.01   0.02    -0.02  -0.03  -0.02
  46   6    -0.08   0.04   0.06     0.04  -0.20  -0.04     0.01  -0.01   0.05
  47   8    -0.12   0.30   0.03     0.18  -0.56   0.01    -0.01   0.01   0.05
  48   7    -0.09  -0.20   0.07    -0.05  -0.29   0.07     0.01  -0.10   0.05
  49   1    -0.02  -0.02   0.01    -0.00  -0.06   0.03     0.00  -0.01   0.01
  50   1    -0.02  -0.09   0.02    -0.02   0.05   0.00     0.01  -0.01   0.01
  51   7    -0.07  -0.01   0.12     0.02   0.21  -0.25     0.02   0.05   0.06
  52   1    -0.01  -0.05   0.04    -0.03   0.07  -0.08     0.01  -0.00   0.02
  53   1    -0.02   0.05   0.04     0.02   0.01  -0.10     0.00   0.02   0.02
                     16                     17                     18
                        a                      a                      a 
 Frequencies --    93.8929               100.5052               108.3049
 Red. masses --    12.0992                11.3010                13.3981
 Frc consts  --     0.0000                 0.0000                 0.0000
 IR Inten    --     5.0886                 2.7600                15.2620
 Raman Activ --     0.0000                 0.0000                 0.0000
 Depolar     --     0.0000                 0.0000                 0.0000
 Atom AN      X      Y      Z        X      Y      Z        X      Y      Z
   1   8    -0.12   0.16   0.02     0.42   0.10  -0.01    -0.10   0.35  -0.02
   2   6    -0.05  -0.00  -0.01     0.07  -0.12   0.19    -0.03  -0.08  -0.03
   3   1     0.01  -0.02   0.00     0.07  -0.06   0.12     0.05  -0.07   0.03
   4   1    -0.04  -0.02  -0.02    -0.03  -0.06   0.08    -0.08  -0.07  -0.05
   5   6     0.02   0.03   0.03    -0.20  -0.05  -0.00     0.05  -0.05   0.01
   6   1     0.01  -0.00   0.03    -0.08   0.04  -0.06     0.01  -0.02   0.02
   7   1     0.02   0.02   0.01    -0.12  -0.06   0.01     0.02  -0.01   0.00
   8   7    -0.00   0.06  -0.05    -0.02  -0.03   0.06     0.10  -0.03  -0.04
   9   6    -0.02  -0.02  -0.09    -0.13  -0.00   0.14     0.18  -0.02  -0.09
  10   1    -0.00  -0.02  -0.02    -0.09   0.05   0.12     0.05   0.01  -0.04
  11   1    -0.01  -0.00  -0.04     0.05   0.03   0.02     0.06  -0.00  -0.03
  12   1    -0.00  -0.01  -0.03    -0.09  -0.07  -0.00     0.07  -0.02  -0.02
  13   6     0.00   0.11  -0.04     0.15   0.05   0.20     0.03   0.05  -0.08
  14   1    -0.00   0.03  -0.00     0.03  -0.00   0.11     0.00   0.03  -0.03
  15   1    -0.00   0.04  -0.00     0.08   0.04   0.05    -0.01   0.01  -0.01
  16   1     0.00   0.04  -0.02     0.05   0.02   0.05     0.02   0.02  -0.03
  17   6    -0.01   0.09  -0.10     0.09  -0.09  -0.13     0.12  -0.09  -0.01
  18   1    -0.00   0.01  -0.04    -0.04   0.03  -0.08     0.05  -0.05   0.01
  19   1    -0.00   0.03  -0.05     0.05  -0.05   0.04     0.05  -0.01  -0.02
  20   1     0.00   0.04  -0.02     0.09  -0.07  -0.11     0.01  -0.02   0.02
  21   1    -0.04   0.05  -0.01     0.07   0.05  -0.06    -0.06   0.11  -0.05
  22   6    -0.00  -0.03  -0.04    -0.04  -0.02   0.02    -0.18  -0.07   0.03
  23   8    -0.04  -0.08  -0.02    -0.15   0.01   0.06    -0.52  -0.20   0.18
  24   7     0.03   0.01  -0.06    -0.05  -0.11   0.12    -0.07  -0.08   0.10
  25   1     0.00  -0.00  -0.01    -0.00  -0.01   0.04    -0.02  -0.01   0.05
  26   1     0.01   0.01  -0.02     0.01  -0.02   0.02     0.06   0.02  -0.01
  27   7     0.02  -0.01  -0.05     0.07   0.02  -0.13     0.06   0.07  -0.23
  28   1     0.01   0.00  -0.02     0.03  -0.01  -0.04     0.07   0.02  -0.09
  29   1    -0.00  -0.01  -0.01     0.01   0.01  -0.05    -0.03   0.00  -0.08
  30   6     0.04  -0.03  -0.04     0.00   0.01  -0.00     0.01   0.06   0.01
  31   8    -0.01   0.07  -0.03     0.02   0.09   0.03     0.09   0.22   0.07
  32   7     0.11   0.02   0.04     0.00  -0.03   0.01    -0.04  -0.04  -0.03
  33   1     0.02   0.00   0.02    -0.01  -0.01   0.01    -0.02  -0.01   0.00
  34   1     0.03  -0.02   0.00    -0.01  -0.03  -0.00    -0.03  -0.05  -0.02
  35   7     0.01  -0.18  -0.18    -0.01  -0.06  -0.05     0.00   0.04  -0.00
  36   1     0.01  -0.06  -0.05    -0.00  -0.03  -0.02    -0.01  -0.03  -0.01
  37   1     0.01  -0.03  -0.04    -0.00   0.00  -0.01     0.00   0.01   0.01
  38   6     0.09  -0.06   0.23    -0.03   0.02  -0.13    -0.01   0.00   0.03
  39   8     0.05  -0.24   0.05     0.03  -0.01  -0.35    -0.04   0.03   0.17
  40   7    -0.02   0.22   0.28    -0.20   0.16  -0.08     0.11  -0.09  -0.01
  41   1    -0.06   0.06   0.04    -0.07   0.07  -0.06     0.04  -0.05   0.03
  42   1    -0.01   0.08   0.13    -0.06   0.06   0.02     0.03  -0.04  -0.03
  43   7     0.27  -0.13   0.45     0.03  -0.07   0.03    -0.06   0.06  -0.08
  44   1     0.09   0.01   0.15    -0.00  -0.01   0.05    -0.01   0.01  -0.05
  45   1     0.09  -0.07   0.12     0.04  -0.04   0.00    -0.03   0.03  -0.02
  46   6    -0.08  -0.00  -0.09    -0.01   0.04  -0.00     0.07  -0.03   0.02
  47   8     0.02  -0.02  -0.08    -0.01   0.14  -0.02     0.09  -0.07   0.03
  48   7    -0.15   0.02  -0.02    -0.02  -0.00   0.00     0.05  -0.10   0.05
  49   1    -0.03   0.02   0.01    -0.00   0.01  -0.00     0.02  -0.00   0.01
  50   1    -0.05   0.01  -0.01    -0.01  -0.02   0.00     0.01  -0.00   0.01
  51   7    -0.14  -0.01  -0.21    -0.02  -0.02   0.01     0.07   0.08  -0.02
  52   1    -0.06  -0.01  -0.06    -0.00  -0.01   0.00     0.01   0.01  -0.00
  53   1    -0.02  -0.02  -0.08    -0.00   0.02   0.00     0.02   0.01  -0.01
                     19                     20                     21
                        a                      a                      a 
 Frequencies --   117.6997               131.8792               140.8509
 Red. masses --    11.8260                12.7681                13.1579
 Frc consts  --     0.0000                 0.0000                 0.0000
 IR Inten    --    17.5805                18.5277                26.7158
 Raman Activ --     0.0000                 0.0000                 0.0000
 Depolar     --     0.0000                 0.0000                 0.0000
 Atom AN      X      Y      Z        X      Y      Z        X      Y      Z
   1   8    -0.01   0.51  -0.04     0.03   0.08   0.04     0.00   0.16   0.07
   2   6    -0.08  -0.20   0.05     0.01  -0.02   0.05     0.04  -0.01   0.05
   3   1     0.09  -0.14   0.10     0.02  -0.02   0.03     0.03  -0.02   0.03
   4   1    -0.14  -0.14  -0.04    -0.02  -0.02   0.01    -0.02  -0.02  -0.00
   5   6    -0.10  -0.17   0.01    -0.01  -0.01   0.03     0.07   0.00   0.06
   6   1    -0.03  -0.05   0.00    -0.01   0.00   0.00     0.02  -0.01   0.03
   7   1    -0.03  -0.04   0.01    -0.01  -0.00   0.01     0.03   0.01   0.02
   8   7    -0.11  -0.16  -0.08     0.02   0.01   0.01     0.04   0.01   0.03
   9   6    -0.12  -0.22  -0.12     0.03  -0.01  -0.00     0.06  -0.03  -0.01
  10   1    -0.04  -0.06  -0.00     0.01  -0.01  -0.01     0.03  -0.02  -0.02
  11   1    -0.02  -0.05  -0.06     0.00  -0.00  -0.00     0.00  -0.01  -0.01
  12   1    -0.04  -0.10  -0.04     0.01  -0.00   0.00     0.03  -0.00   0.01
  13   6    -0.07  -0.06  -0.04     0.03   0.04   0.02     0.00   0.02   0.00
  14   1    -0.02  -0.03   0.00     0.01   0.00   0.01     0.01  -0.00  -0.00
  15   1    -0.01   0.00  -0.00     0.01   0.02   0.01    -0.00   0.01   0.01
  16   1    -0.02  -0.01  -0.04     0.01   0.01  -0.00    -0.01   0.01  -0.01
  17   6    -0.09  -0.10  -0.17     0.03  -0.00  -0.01     0.01   0.04   0.04
  18   1    -0.05  -0.02  -0.06     0.01  -0.00  -0.01     0.01   0.01   0.02
  19   1    -0.03  -0.03  -0.05     0.01  -0.00   0.00    -0.01   0.01   0.00
  20   1    -0.01  -0.02  -0.05     0.01  -0.00  -0.00    -0.00   0.02   0.02
  21   1    -0.07   0.17  -0.11    -0.02   0.04   0.01    -0.00   0.04  -0.01
  22   6     0.10   0.09   0.02    -0.06  -0.04  -0.13     0.08  -0.21   0.09
  23   8     0.32   0.26  -0.08     0.10  -0.32  -0.17     0.03  -0.42   0.17
  24   7     0.01   0.02   0.07    -0.23   0.05  -0.36     0.08  -0.12  -0.02
  25   1    -0.00  -0.01   0.02    -0.08  -0.02  -0.12     0.01  -0.06  -0.02
  26   1    -0.07  -0.06   0.05    -0.09   0.06  -0.09     0.01  -0.00  -0.01
  27   7     0.01   0.02   0.10    -0.05   0.15   0.15     0.20  -0.04   0.18
  28   1    -0.03  -0.01   0.05    -0.05   0.10   0.05     0.06   0.04   0.03
  29   1     0.04   0.04   0.02     0.03   0.02   0.09     0.05  -0.04   0.08
  30   6     0.00   0.01   0.01     0.05  -0.00   0.00    -0.06   0.13  -0.13
  31   8    -0.05  -0.08  -0.01    -0.11   0.06   0.00    -0.13  -0.19  -0.27
  32   7     0.04   0.07   0.06     0.16   0.02   0.16     0.03   0.35  -0.11
  33   1     0.01   0.01   0.01     0.02  -0.01   0.04     0.03   0.12  -0.03
  34   1     0.03   0.04   0.02     0.06  -0.00   0.04     0.05   0.16  -0.01
  35   7     0.01   0.04   0.04     0.10  -0.08  -0.13    -0.06   0.25  -0.02
  36   1     0.01   0.03   0.02     0.04  -0.02  -0.03    -0.00   0.14   0.01
  37   1     0.00  -0.00   0.00     0.03  -0.00  -0.03    -0.02   0.02  -0.02
  38   6     0.02   0.01   0.03    -0.03  -0.01  -0.09    -0.02   0.00  -0.05
  39   8     0.02   0.04   0.11    -0.04   0.01  -0.05    -0.02  -0.02  -0.11
  40   7     0.06  -0.07   0.03    -0.00  -0.05  -0.10    -0.08   0.07  -0.04
  41   1     0.03  -0.02   0.02     0.00  -0.02  -0.02    -0.03   0.03  -0.03
  42   1     0.02  -0.03  -0.01    -0.00  -0.02  -0.04    -0.02   0.03   0.01
  43   7    -0.02   0.03  -0.02    -0.05   0.01  -0.12     0.02  -0.01   0.00
  44   1    -0.00   0.00  -0.02    -0.01   0.00  -0.04    -0.01  -0.01   0.02
  45   1    -0.01   0.02  -0.01    -0.01   0.01  -0.03    -0.00  -0.03   0.00
  46   6     0.03  -0.00   0.01     0.01   0.03   0.16    -0.08  -0.03   0.00
  47   8     0.00  -0.02   0.01     0.26   0.04   0.22    -0.20  -0.10   0.01
  48   7     0.04  -0.02  -0.00    -0.13   0.03   0.36    -0.01   0.01  -0.09
  49   1     0.01  -0.02  -0.01    -0.03   0.03   0.12    -0.02  -0.03  -0.04
  50   1     0.01  -0.02   0.00    -0.07   0.00   0.09     0.02  -0.01  -0.02
  51   7     0.04   0.05   0.04    -0.09   0.00  -0.05    -0.02   0.05   0.13
  52   1     0.02   0.02   0.01    -0.08  -0.01  -0.02     0.03   0.03   0.03
  53   1     0.01   0.02   0.01     0.01  -0.00  -0.05    -0.03   0.01   0.06
                     22                     23                     24
                        a                      a                      a 
 Frequencies --   150.1979               158.0589               165.6422
 Red. masses --    13.7892                11.8789                12.6595
 Frc consts  --     0.0000                 0.0000                 0.0000
 IR Inten    --    12.5238                10.7617                 3.5569
 Raman Activ --     0.0000                 0.0000                 0.0000
 Depolar     --     0.0000                 0.0000                 0.0000
 Atom AN      X      Y      Z        X      Y      Z        X      Y      Z
   1   8     0.06   0.26   0.07    -0.25   0.01   0.27    -0.10  -0.04   0.09
   2   6     0.11   0.10   0.03     0.02  -0.10   0.09     0.00  -0.03   0.02
   3   1     0.04   0.02   0.02     0.02  -0.05   0.00    -0.00  -0.01  -0.01
   4   1     0.01   0.02  -0.01    -0.02  -0.05  -0.01     0.01  -0.01  -0.01
   5   6     0.15   0.07   0.06     0.23  -0.08   0.21     0.09  -0.04   0.08
   6   1     0.05  -0.01   0.03     0.08  -0.06   0.12     0.03  -0.03   0.05
   7   1     0.06   0.04   0.02     0.12   0.02   0.05     0.05   0.01   0.02
   8   7     0.08   0.07   0.04     0.09  -0.08   0.07     0.03  -0.04   0.02
   9   6     0.07   0.03   0.01     0.12  -0.25  -0.07     0.04  -0.11  -0.04
  10   1     0.04  -0.01  -0.02     0.08  -0.13  -0.06     0.02  -0.05  -0.02
  11   1    -0.01  -0.00   0.01    -0.05  -0.09  -0.04    -0.01  -0.03  -0.02
  12   1     0.03   0.04   0.02     0.08  -0.04   0.01     0.02  -0.03  -0.00
  13   6     0.04   0.03   0.01    -0.01  -0.05  -0.02    -0.01  -0.02  -0.01
  14   1     0.02   0.01  -0.01     0.00  -0.01  -0.03    -0.01   0.00  -0.01
  15   1     0.01   0.00   0.00    -0.03  -0.02   0.01    -0.01  -0.01   0.00
  16   1     0.01   0.00   0.01    -0.01  -0.01  -0.01     0.00  -0.00  -0.00
  17   6     0.01   0.15   0.07    -0.02   0.08   0.09    -0.02   0.03   0.03
  18   1     0.01   0.04   0.03     0.03  -0.03   0.04     0.01  -0.01   0.02
  19   1    -0.02   0.04   0.00    -0.04   0.05  -0.05    -0.02   0.02  -0.03
  20   1     0.00   0.06   0.03    -0.03   0.08   0.08    -0.02   0.03   0.04
  21   1     0.01   0.07  -0.02    -0.08   0.01   0.10    -0.00  -0.02   0.01
  22   6    -0.12   0.08  -0.03     0.01   0.03  -0.03     0.05   0.06   0.08
  23   8    -0.18   0.10  -0.03     0.08   0.05  -0.06    -0.07   0.27   0.11
  24   7    -0.07   0.09  -0.02    -0.02   0.02  -0.04     0.18  -0.01   0.25
  25   1    -0.05  -0.01   0.01     0.00   0.02  -0.01     0.06   0.02   0.08
  26   1    -0.03   0.00   0.00    -0.00   0.01  -0.01     0.06  -0.03   0.07
  27   7    -0.11   0.07  -0.12    -0.03   0.01   0.03     0.01  -0.13  -0.13
  28   1    -0.02   0.01  -0.03    -0.02   0.00   0.01     0.04  -0.08  -0.04
  29   1    -0.04   0.02  -0.04     0.01   0.01   0.01    -0.03  -0.01  -0.08
  30   6    -0.07  -0.26   0.04    -0.01   0.07   0.09     0.10  -0.05  -0.18
  31   8    -0.25  -0.61  -0.06     0.11   0.26   0.18     0.08  -0.13  -0.24
  32   7     0.01  -0.13   0.13    -0.08  -0.02   0.03     0.11  -0.02  -0.22
  33   1    -0.02  -0.07   0.01    -0.01   0.01   0.01     0.02  -0.01  -0.06
  34   1     0.04   0.03   0.05    -0.05  -0.04  -0.00     0.03   0.00  -0.06
  35   7     0.02  -0.09   0.14    -0.07  -0.05   0.05     0.14   0.04  -0.15
  36   1     0.04   0.06   0.06    -0.03  -0.05   0.00     0.03   0.02  -0.04
  37   1    -0.00  -0.04   0.02    -0.02  -0.01   0.02     0.05   0.03  -0.02
  38   6    -0.02   0.00  -0.04    -0.07   0.01  -0.16    -0.03   0.00  -0.08
  39   8    -0.03  -0.02  -0.10    -0.06  -0.04  -0.32    -0.03   0.01  -0.08
  40   7    -0.07   0.07  -0.04    -0.22   0.18  -0.14    -0.04   0.00  -0.08
  41   1    -0.03   0.03  -0.02    -0.08   0.08  -0.08    -0.01   0.01  -0.02
  42   1    -0.01   0.03   0.00    -0.05   0.08   0.01    -0.00   0.01  -0.02
  43   7     0.01  -0.02   0.00    -0.00  -0.05  -0.03    -0.04  -0.00  -0.07
  44   1     0.00   0.00   0.01    -0.01  -0.00   0.02    -0.01   0.00  -0.02
  45   1     0.01  -0.01  -0.00     0.02  -0.04  -0.01     0.00   0.00  -0.02
  46   6     0.08  -0.02  -0.04     0.05   0.02  -0.06    -0.12   0.05   0.14
  47   8     0.08  -0.02  -0.05     0.00   0.07  -0.08     0.10   0.04   0.21
  48   7     0.09   0.01  -0.05     0.07  -0.05  -0.09    -0.24   0.13   0.32
  49   1     0.01  -0.06  -0.01     0.03   0.02  -0.03    -0.06   0.03   0.10
  50   1     0.02  -0.06  -0.01     0.03   0.01  -0.03    -0.09   0.01   0.08
  51   7     0.09  -0.01  -0.04     0.08  -0.01  -0.01    -0.24  -0.00  -0.06
  52   1     0.03   0.01  -0.01     0.03  -0.03   0.00    -0.11   0.02  -0.03
  53   1     0.03   0.01  -0.01     0.01  -0.00   0.01    -0.03  -0.00  -0.06
                     25                     26                     27
                        a                      a                      a 
 Frequencies --   182.0994               210.1399               244.1055
 Red. masses --    13.1508                12.4118                 2.5597
 Frc consts  --     0.0000                 0.0000                 0.0000
 IR Inten    --     6.7737                80.6756               165.1395
 Raman Activ --     0.0000                 0.0000                 0.0000
 Depolar     --     0.0000                 0.0000                 0.0000
 Atom AN      X      Y      Z        X      Y      Z        X      Y      Z
   1   8    -0.01   0.05   0.02    -0.01   0.04   0.00    -0.01  -0.00   0.01
   2   6     0.01   0.00   0.01    -0.01   0.01   0.01     0.00   0.00   0.00
   3   1     0.01  -0.00   0.01    -0.00   0.00   0.01    -0.00   0.00   0.00
   4   1    -0.01  -0.00  -0.00    -0.00   0.00  -0.00     0.00   0.00  -0.00
   5   6     0.01  -0.01   0.01    -0.03  -0.01  -0.01     0.01  -0.01   0.01
   6   1     0.00  -0.00   0.00    -0.01  -0.00  -0.01     0.00  -0.00   0.00
   7   1     0.00  -0.00   0.00    -0.01  -0.01  -0.00     0.00  -0.00  -0.00
   8   7     0.01  -0.00   0.00    -0.02  -0.01  -0.01     0.01  -0.01   0.01
   9   6     0.02  -0.02  -0.01    -0.01  -0.00  -0.01     0.01  -0.02  -0.00
  10   1     0.01  -0.01  -0.00    -0.02   0.02   0.02    -0.01   0.01   0.02
  11   1     0.00  -0.00  -0.01     0.03   0.01  -0.01     0.03   0.01  -0.01
  12   1     0.01  -0.01  -0.00    -0.01  -0.03  -0.01    -0.01  -0.03  -0.01
  13   6     0.01   0.01  -0.00    -0.02   0.02  -0.00    -0.01  -0.01  -0.00
  14   1     0.00  -0.00   0.00    -0.00  -0.00   0.01     0.01  -0.02   0.00
  15   1     0.00   0.01   0.00    -0.00   0.02   0.01     0.00   0.02   0.01
  16   1     0.00   0.00  -0.00    -0.01   0.01  -0.01    -0.02  -0.00  -0.02
  17   6     0.02  -0.00  -0.01    -0.00  -0.03  -0.02    -0.00   0.01   0.02
  18   1     0.00  -0.00  -0.00    -0.01   0.01  -0.01    -0.01   0.03   0.00
  19   1     0.00   0.00  -0.00     0.00  -0.02   0.01    -0.01  -0.01   0.03
  20   1     0.00   0.00  -0.00     0.01  -0.02  -0.02     0.02  -0.00  -0.01
  21   1     0.00   0.01   0.00     0.05  -0.02  -0.03    -0.00  -0.00   0.00
  22   6    -0.10   0.06  -0.05    -0.06   0.01  -0.00     0.00   0.00  -0.00
  23   8    -0.06  -0.00  -0.08    -0.01  -0.07  -0.01     0.00   0.01  -0.00
  24   7    -0.17   0.05  -0.10    -0.14  -0.01  -0.05     0.00  -0.00   0.00
  25   1    -0.04   0.02  -0.04    -0.03   0.00  -0.04     0.00   0.00  -0.00
  26   1    -0.04   0.03  -0.03    -0.04   0.02  -0.02     0.00   0.00  -0.00
  27   7    -0.09   0.13  -0.00    -0.03   0.10   0.11    -0.00  -0.01  -0.00
  28   1    -0.04   0.04   0.01    -0.02   0.07   0.02     0.00   0.00  -0.00
  29   1    -0.01   0.03   0.01     0.02   0.03   0.05     0.00   0.00  -0.00
  30   6     0.31  -0.05   0.02     0.10  -0.06   0.03    -0.00  -0.00   0.00
  31   8     0.30  -0.03   0.02     0.49  -0.21   0.04    -0.01  -0.01   0.00
  32   7     0.25  -0.20  -0.03    -0.06   0.21  -0.36     0.00   0.01   0.01
  33   1     0.04  -0.09  -0.02     0.06   0.10  -0.14    -0.00  -0.00  -0.00
  34   1     0.07  -0.04  -0.01    -0.11   0.08  -0.10    -0.01  -0.01  -0.00
  35   7     0.36   0.09   0.09    -0.20  -0.17   0.40     0.00   0.01  -0.00
  36   1     0.08   0.03   0.02    -0.12   0.00   0.11    -0.00  -0.01  -0.00
  37   1     0.10   0.04   0.03    -0.04  -0.11   0.15     0.00   0.01   0.00
  38   6    -0.01  -0.00  -0.00     0.01  -0.00   0.01    -0.04  -0.01  -0.00
  39   8    -0.01  -0.01  -0.02     0.01  -0.00   0.01     0.02   0.03  -0.04
  40   7    -0.01   0.02  -0.00     0.01   0.01   0.01     0.26   0.19  -0.08
  41   1    -0.00   0.01  -0.01    -0.00  -0.00   0.01    -0.37  -0.30   0.12
  42   1    -0.00   0.01   0.00    -0.01  -0.00   0.01    -0.60  -0.42   0.21
  43   7     0.01  -0.00   0.00     0.00  -0.01   0.02    -0.02  -0.01  -0.01
  44   1    -0.01  -0.01   0.01     0.01   0.01   0.00     0.12   0.13  -0.05
  45   1    -0.02  -0.01   0.01     0.01   0.01   0.00     0.07   0.07  -0.03
  46   6    -0.22  -0.03   0.00     0.01   0.04  -0.02    -0.01  -0.01  -0.00
  47   8    -0.43  -0.13   0.01     0.10   0.09  -0.02    -0.01  -0.03   0.00
  48   7    -0.09   0.01  -0.16    -0.04   0.08   0.05    -0.00   0.00  -0.01
  49   1    -0.04  -0.01  -0.06    -0.00   0.01   0.04    -0.00  -0.01  -0.00
  50   1     0.01   0.01  -0.04    -0.03  -0.00   0.01    -0.00  -0.01  -0.00
  51   7    -0.12   0.06   0.27    -0.05  -0.01  -0.17    -0.00  -0.00   0.01
  52   1     0.04   0.06   0.07    -0.06  -0.05  -0.04     0.00   0.02  -0.00
  53   1    -0.07   0.02   0.12     0.01  -0.03  -0.07     0.00   0.01   0.00
                     28                     29                     30
                        a                      a                      a 
 Frequencies --   246.6978               276.5009               278.1709
 Red. masses --     2.4305                 5.8221                 2.8767
 Frc consts  --     0.0000                 0.0000                 0.0000
 IR Inten    --     6.9352                16.7916                73.8127
 Raman Activ --     0.0000                 0.0000                 0.0000
 Depolar     --     0.0000                 0.0000                 0.0000
 Atom AN      X      Y      Z        X      Y      Z        X      Y      Z
   1   8     0.15  -0.02  -0.10     0.06   0.06  -0.05     0.01   0.02  -0.03
   2   6    -0.03  -0.17   0.01     0.01   0.35  -0.03    -0.00   0.14  -0.02
   3   1     0.05  -0.09   0.02    -0.11   0.19  -0.02    -0.04   0.07  -0.01
   4   1    -0.07  -0.09   0.03     0.14   0.19  -0.02     0.05   0.07  -0.01
   5   6    -0.07   0.02  -0.02    -0.04  -0.05   0.01    -0.01  -0.01   0.00
   6   1    -0.03   0.01   0.01    -0.00  -0.02  -0.02     0.00  -0.01  -0.01
   7   1    -0.02   0.01  -0.00    -0.00  -0.03  -0.01     0.00  -0.01  -0.01
   8   7    -0.03   0.04  -0.01    -0.04  -0.09   0.06    -0.01  -0.03   0.03
   9   6    -0.10   0.09   0.09    -0.07  -0.29  -0.07    -0.02  -0.12  -0.03
  10   1     0.17  -0.19  -0.24    -0.03  -0.09   0.04    -0.02  -0.03   0.03
  11   1    -0.39  -0.11   0.20    -0.00  -0.06  -0.09     0.01  -0.02  -0.04
  12   1     0.12   0.40   0.15    -0.05  -0.15  -0.04    -0.02  -0.08  -0.02
  13   6     0.04  -0.01   0.05    -0.03   0.28   0.10    -0.01   0.12   0.04
  14   1    -0.07   0.15  -0.02    -0.05   0.12   0.06    -0.02   0.05   0.03
  15   1    -0.03  -0.16  -0.07    -0.04   0.09   0.05    -0.01   0.04   0.02
  16   1     0.15  -0.01   0.14     0.06   0.12  -0.02     0.02   0.05  -0.01
  17   6    -0.01   0.03  -0.08     0.08  -0.26   0.02     0.03  -0.09   0.02
  18   1     0.11  -0.24   0.02     0.15  -0.32   0.05     0.06  -0.13   0.03
  19   1     0.03   0.13  -0.27     0.09   0.05  -0.22     0.03   0.03  -0.09
  20   1    -0.14   0.12   0.16    -0.14  -0.00   0.17    -0.06   0.01   0.08
  21   1     0.00   0.01  -0.05     0.07  -0.02   0.00     0.06  -0.03  -0.02
  22   6    -0.02  -0.00   0.01     0.00  -0.00  -0.00     0.00  -0.00  -0.01
  23   8    -0.02  -0.01   0.01     0.01   0.00  -0.00     0.01  -0.01  -0.01
  24   7     0.01   0.01   0.01     0.00   0.00   0.00    -0.02  -0.01  -0.00
  25   1    -0.00  -0.00   0.01     0.00   0.00  -0.00     0.01   0.01  -0.01
  26   1    -0.01  -0.01   0.01     0.00   0.00  -0.00     0.02   0.02  -0.01
  27   7     0.01   0.02   0.01     0.00   0.00   0.00     0.00   0.01   0.01
  28   1     0.00   0.01  -0.00     0.00   0.00  -0.00    -0.01  -0.00   0.01
  29   1     0.01   0.01   0.00     0.00   0.00   0.00    -0.00  -0.01   0.01
  30   6     0.01   0.00  -0.00    -0.01  -0.01  -0.00    -0.01   0.02   0.01
  31   8     0.04  -0.00   0.00    -0.03  -0.03  -0.01     0.02   0.04   0.02
  32   7    -0.00   0.01  -0.03     0.01  -0.01   0.03    -0.02   0.01  -0.01
  33   1     0.01   0.01  -0.01    -0.00  -0.01   0.01     0.00   0.01  -0.00
  34   1    -0.00   0.01  -0.01     0.01   0.00   0.01    -0.01   0.00  -0.00
  35   7    -0.01  -0.01   0.02     0.01   0.01  -0.00    -0.02  -0.01   0.00
  36   1    -0.01  -0.00   0.01     0.01   0.01   0.00    -0.01  -0.02  -0.00
  37   1    -0.00  -0.01   0.01    -0.00   0.00  -0.01    -0.00   0.00   0.01
  38   6     0.01   0.00  -0.00     0.00   0.00  -0.01    -0.00  -0.00   0.00
  39   8     0.03   0.01  -0.01     0.01   0.01  -0.02    -0.00   0.00   0.00
  40   7     0.03   0.01  -0.00    -0.00   0.00  -0.00    -0.00   0.01   0.00
  41   1    -0.03  -0.03   0.01    -0.01  -0.01   0.00     0.00   0.01  -0.00
  42   1    -0.05  -0.04   0.02    -0.02  -0.01   0.01     0.01   0.01  -0.00
  43   7     0.00  -0.01   0.01    -0.00  -0.01   0.00     0.01   0.01  -0.00
  44   1     0.01   0.01  -0.00     0.01   0.01  -0.00    -0.03  -0.03   0.02
  45   1     0.01   0.01  -0.00     0.01   0.01  -0.00    -0.01  -0.02   0.01
  46   6    -0.00   0.01   0.00    -0.01  -0.01   0.00     0.02  -0.00  -0.02
  47   8     0.00   0.01   0.00    -0.02   0.00  -0.01     0.03  -0.04  -0.00
  48   7    -0.01   0.01   0.01     0.00  -0.04  -0.01     0.02   0.07  -0.01
  49   1    -0.00   0.00   0.00     0.01   0.04  -0.01    -0.01  -0.12   0.01
  50   1    -0.00   0.00   0.00     0.02   0.12  -0.01    -0.05  -0.34   0.03
  51   7    -0.01  -0.01  -0.00     0.04   0.11  -0.02    -0.06  -0.26   0.05
  52   1    -0.00   0.01  -0.00    -0.04  -0.27   0.07     0.11   0.64  -0.16
  53   1     0.00   0.01  -0.00    -0.04  -0.17   0.03     0.10   0.40  -0.08
                     31                     32                     33
                        a                      a                      a 
 Frequencies --   288.0458               325.0712               343.9359
 Red. masses --     3.0256                 9.2802                 2.3971
 Frc consts  --     0.0000                 0.0000                 0.0000
 IR Inten    --     0.5996                 2.0624                 0.8061
 Raman Activ --     0.0000                 0.0000                 0.0000
 Depolar     --     0.0000                 0.0000                 0.0000
 Atom AN      X      Y      Z        X      Y      Z        X      Y      Z
   1   8     0.04  -0.03  -0.12    -0.10   0.08   0.43     0.01  -0.00  -0.03
   2   6    -0.01  -0.21  -0.06     0.16   0.14   0.18    -0.07   0.08   0.03
   3   1     0.08  -0.13  -0.02    -0.01   0.08   0.02    -0.04   0.04   0.03
   4   1    -0.09  -0.12   0.00     0.10   0.07   0.03     0.01   0.04   0.01
   5   6     0.06   0.06  -0.03     0.07  -0.02   0.05    -0.10   0.00   0.01
   6   1     0.01   0.01   0.02     0.04  -0.04  -0.02    -0.04   0.02   0.00
   7   1     0.04   0.04  -0.01    -0.00   0.03   0.04    -0.03  -0.02  -0.01
   8   7    -0.01   0.06   0.02    -0.06  -0.03  -0.15    -0.01   0.02   0.02
   9   6    -0.01   0.14   0.07    -0.10   0.26   0.06     0.13  -0.14  -0.17
  10   1    -0.18   0.24   0.24    -0.09   0.16   0.05     0.01  -0.00  -0.01
  11   1     0.31   0.15  -0.09     0.08   0.08   0.08     0.10   0.00  -0.14
  12   1    -0.14  -0.25  -0.09    -0.08   0.06  -0.02     0.04  -0.16  -0.05
  13   6     0.03  -0.14   0.03    -0.09  -0.21  -0.20     0.07  -0.04   0.09
  14   1    -0.00  -0.02  -0.01    -0.07   0.06  -0.14    -0.19   0.39  -0.07
  15   1     0.01  -0.09  -0.03    -0.08  -0.20  -0.12    -0.11  -0.43  -0.19
  16   1     0.02  -0.06   0.07     0.06  -0.08   0.07     0.41  -0.03   0.37
  17   6    -0.11   0.17   0.10     0.12  -0.22  -0.34    -0.07   0.11   0.03
  18   1     0.14  -0.25   0.10     0.03  -0.17  -0.13    -0.08   0.17  -0.01
  19   1    -0.04   0.19  -0.29     0.12  -0.01  -0.16    -0.06  -0.03   0.12
  20   1    -0.21   0.21   0.28     0.01  -0.05  -0.07     0.05  -0.01  -0.07
  21   1    -0.05   0.03  -0.04     0.01  -0.00   0.14     0.02  -0.01  -0.01
  22   6     0.00  -0.01  -0.01     0.02   0.01  -0.00    -0.01  -0.02  -0.00
  23   8     0.01  -0.02  -0.01     0.01   0.00   0.00    -0.00  -0.01  -0.00
  24   7    -0.01  -0.00  -0.02    -0.02  -0.02   0.01     0.01   0.01  -0.02
  25   1    -0.01  -0.01  -0.00     0.01   0.01  -0.01    -0.01  -0.01   0.00
  26   1    -0.01  -0.00  -0.00     0.06   0.06  -0.03    -0.06  -0.05   0.02
  27   7    -0.00  -0.00   0.00     0.01   0.00  -0.01    -0.00  -0.01   0.02
  28   1     0.00   0.00  -0.00    -0.03  -0.04   0.03     0.03   0.05  -0.03
  29   1    -0.00  -0.00   0.00    -0.02  -0.03   0.01     0.02   0.02  -0.01
  30   6     0.01   0.00   0.00    -0.01  -0.01  -0.00     0.00   0.00   0.00
  31   8     0.00   0.00   0.00    -0.01  -0.01  -0.00     0.00  -0.00   0.00
  32   7     0.00  -0.01  -0.00     0.00   0.01   0.01    -0.01  -0.02  -0.00
  33   1     0.00   0.00  -0.00    -0.01  -0.01  -0.00     0.02   0.02   0.01
  34   1     0.00   0.00  -0.00    -0.01  -0.01  -0.00     0.02   0.03   0.01
  35   7     0.00  -0.00   0.00     0.00   0.01  -0.00     0.01   0.00  -0.00
  36   1     0.00   0.00   0.00     0.00  -0.00  -0.00    -0.00  -0.02  -0.01
  37   1     0.00  -0.00   0.00     0.00   0.00  -0.00     0.00  -0.01  -0.00
  38   6     0.01   0.00  -0.01     0.00  -0.00  -0.00     0.00   0.01   0.01
  39   8     0.02   0.00  -0.02     0.01   0.00  -0.00     0.01   0.01   0.00
  40   7    -0.01  -0.00  -0.00    -0.00   0.01  -0.00     0.01  -0.01   0.01
  41   1    -0.00   0.00  -0.00    -0.01   0.00  -0.00     0.00  -0.00   0.01
  42   1    -0.00  -0.00   0.00    -0.01  -0.00   0.01    -0.00  -0.01   0.00
  43   7     0.01  -0.02   0.01    -0.00   0.00  -0.01    -0.01   0.01   0.00
  44   1     0.01   0.00   0.00    -0.00  -0.00  -0.00    -0.00   0.00  -0.00
  45   1     0.01  -0.00   0.00    -0.00   0.00  -0.00    -0.00   0.00   0.00
  46   6    -0.00   0.00   0.00    -0.00  -0.00  -0.00     0.00   0.00  -0.00
  47   8    -0.00   0.00   0.00     0.00  -0.00   0.00    -0.00  -0.00  -0.00
  48   7    -0.00   0.00   0.00     0.00   0.00  -0.00    -0.00  -0.01  -0.00
  49   1    -0.00   0.01  -0.00    -0.00  -0.00  -0.00     0.00   0.00   0.00
  50   1     0.00   0.02  -0.00    -0.00  -0.02   0.00     0.00   0.01  -0.00
  51   7     0.00   0.01   0.00    -0.00  -0.00   0.00     0.00  -0.00   0.00
  52   1    -0.00  -0.02   0.01     0.00   0.01  -0.00     0.00   0.00  -0.00
  53   1    -0.00  -0.01   0.00     0.00   0.01  -0.00     0.00   0.00   0.00
                     34                     35                     36
                        a                      a                      a 
 Frequencies --   346.9633               376.5932               383.6034
 Red. masses --     2.4409                 6.7823                 3.9304
 Frc consts  --     0.0000                 0.0000                 0.0000
 IR Inten    --    54.5522                 7.2882                98.7277
 Raman Activ --     0.0000                 0.0000                 0.0000
 Depolar     --     0.0000                 0.0000                 0.0000
 Atom AN      X      Y      Z        X      Y      Z        X      Y      Z
   1   8    -0.00  -0.03   0.05    -0.04   0.04   0.14     0.00   0.01   0.03
   2   6     0.04   0.02   0.01    -0.10   0.17   0.15    -0.03   0.07   0.04
   3   1     0.00   0.01  -0.01    -0.10   0.11   0.07    -0.03   0.04   0.02
   4   1     0.02   0.01   0.01     0.06   0.11   0.03     0.02   0.04   0.02
   5   6     0.04   0.02  -0.00    -0.32  -0.06  -0.04    -0.09  -0.01  -0.01
   6   1     0.02  -0.00  -0.01    -0.12   0.07  -0.11    -0.03   0.02  -0.03
   7   1     0.01   0.01   0.00    -0.18  -0.09  -0.00    -0.05  -0.02  -0.00
   8   7     0.00   0.01  -0.01    -0.02  -0.03  -0.03    -0.02  -0.01  -0.01
   9   6    -0.05   0.03   0.04     0.31   0.02  -0.19     0.09  -0.00  -0.08
  10   1    -0.02   0.01   0.03     0.11   0.02  -0.16     0.03   0.01  -0.05
  11   1    -0.01   0.01   0.02     0.07   0.01  -0.07     0.02   0.00  -0.03
  12   1    -0.03   0.01  -0.00     0.18   0.01   0.01     0.05  -0.00  -0.00
  13   6    -0.04   0.00  -0.05     0.20  -0.28   0.11     0.07  -0.08   0.04
  14   1     0.01  -0.03  -0.02     0.13  -0.24   0.09     0.04  -0.08   0.04
  15   1    -0.01   0.03   0.01     0.19   0.03   0.03     0.07   0.02   0.01
  16   1    -0.04   0.00  -0.04    -0.09  -0.11  -0.00    -0.03  -0.03  -0.00
  17   6     0.04  -0.05  -0.03    -0.09   0.14  -0.12    -0.03   0.02  -0.03
  18   1     0.02  -0.04  -0.01     0.01  -0.04  -0.02     0.01  -0.02   0.00
  19   1     0.03  -0.01  -0.01    -0.07   0.09  -0.16    -0.02   0.02  -0.04
  20   1     0.00  -0.02  -0.00    -0.05   0.13   0.06    -0.02   0.03   0.02
  21   1    -0.06   0.03   0.05     0.08  -0.05  -0.00    -0.07   0.05   0.05
  22   6    -0.06  -0.03   0.01     0.00   0.01  -0.00    -0.03  -0.02   0.01
  23   8    -0.04  -0.01   0.01    -0.00   0.01   0.00    -0.02  -0.02   0.01
  24   7     0.12   0.13  -0.06    -0.00  -0.00   0.01     0.04   0.04  -0.00
  25   1    -0.09  -0.10   0.04     0.01   0.01  -0.00    -0.02  -0.02   0.01
  26   1    -0.42  -0.41   0.20    -0.01  -0.01   0.01    -0.05  -0.05   0.03
  27   7    -0.09  -0.14   0.09    -0.03  -0.05   0.03     0.07   0.10  -0.07
  28   1     0.34   0.38  -0.28     0.08   0.08  -0.06    -0.15  -0.16   0.12
  29   1     0.15   0.23  -0.13     0.03   0.05  -0.03    -0.05  -0.08   0.05
  30   6     0.02   0.01   0.01    -0.01   0.01  -0.00     0.01  -0.03  -0.01
  31   8     0.01   0.02   0.01    -0.01   0.01  -0.00     0.00  -0.05  -0.02
  32   7    -0.04  -0.05  -0.03     0.01   0.02   0.01    -0.02  -0.01  -0.02
  33   1     0.05   0.06   0.02    -0.03  -0.03  -0.01     0.03   0.03   0.00
  34   1     0.05   0.07   0.02    -0.04  -0.06  -0.02     0.07   0.11   0.03
  35   7     0.03   0.00  -0.02    -0.01  -0.02  -0.01     0.00   0.05   0.04
  36   1    -0.00  -0.05  -0.02     0.01   0.04   0.01    -0.04  -0.10  -0.02
  37   1     0.00  -0.01  -0.02     0.00   0.03   0.01    -0.02  -0.08  -0.02
  38   6    -0.00  -0.00  -0.00     0.01   0.02   0.00    -0.01  -0.01   0.01
  39   8     0.00  -0.00   0.00     0.00   0.01  -0.01    -0.00  -0.00  -0.00
  40   7    -0.00   0.00  -0.00     0.01  -0.03   0.01     0.02  -0.00  -0.00
  41   1    -0.00   0.00  -0.00     0.02  -0.01   0.01     0.00  -0.01   0.01
  42   1    -0.00   0.00   0.00     0.01  -0.01  -0.01    -0.01  -0.02   0.00
  43   7     0.01   0.00  -0.00    -0.00  -0.02   0.03     0.03   0.03  -0.00
  44   1    -0.01  -0.01   0.01     0.03   0.03  -0.01    -0.05  -0.05   0.03
  45   1    -0.01  -0.01   0.00     0.01   0.01   0.00    -0.02  -0.03   0.01
  46   6    -0.00   0.03  -0.00    -0.00  -0.04   0.00     0.02   0.15  -0.00
  47   8     0.01   0.01  -0.00    -0.01  -0.02  -0.00     0.02   0.08   0.01
  48   7    -0.01  -0.05   0.00     0.01   0.06  -0.00    -0.02  -0.26   0.00
  49   1     0.00   0.03  -0.01    -0.01  -0.03   0.00     0.03   0.11  -0.01
  50   1     0.01   0.10  -0.01    -0.02  -0.18   0.02     0.09   0.70  -0.07
  51   7    -0.01  -0.05   0.02     0.02   0.05  -0.01    -0.06  -0.23   0.04
  52   1     0.01   0.07  -0.01    -0.00  -0.06   0.01     0.02   0.24  -0.06
  53   1     0.01   0.03  -0.00    -0.01  -0.03   0.01     0.03   0.10  -0.03
                     37                     38                     39
                        a                      a                      a 
 Frequencies --   395.6214               419.0229               425.3112
 Red. masses --     2.8495                 3.2016                 8.7263
 Frc consts  --     0.0000                 0.0000                 0.0000
 IR Inten    --    64.5078               134.1148                 0.6450
 Raman Activ --     0.0000                 0.0000                 0.0000
 Depolar     --     0.0000                 0.0000                 0.0000
 Atom AN      X      Y      Z        X      Y      Z        X      Y      Z
   1   8    -0.03  -0.01   0.05     0.00   0.03  -0.03     0.09  -0.03  -0.23
   2   6     0.02  -0.00   0.00    -0.01  -0.01   0.00    -0.10   0.06  -0.07
   3   1    -0.00   0.00  -0.00     0.00  -0.01   0.01    -0.07   0.05  -0.01
   4   1     0.01   0.00  -0.00    -0.01  -0.01  -0.00     0.03   0.05  -0.04
   5   6    -0.01  -0.00  -0.01    -0.01  -0.02   0.00     0.07  -0.18   0.14
   6   1    -0.00   0.02  -0.03    -0.00  -0.00   0.00     0.03  -0.09   0.10
   7   1    -0.02  -0.01  -0.00     0.00  -0.00  -0.00     0.11  -0.02   0.01
   8   7    -0.00  -0.01  -0.01    -0.00  -0.01   0.01    -0.04  -0.21   0.26
   9   6     0.00   0.00  -0.01     0.02   0.00   0.01     0.30   0.04   0.26
  10   1     0.00   0.00  -0.01     0.01   0.00  -0.00     0.05   0.11  -0.01
  11   1    -0.00  -0.00   0.00     0.00  -0.00   0.01     0.16   0.02   0.10
  12   1     0.01   0.00   0.00     0.01   0.01   0.01     0.13   0.00   0.11
  13   6     0.01  -0.02   0.01    -0.01   0.00   0.00    -0.30   0.05   0.10
  14   1     0.01  -0.03   0.01    -0.00  -0.00   0.00    -0.09   0.05  -0.03
  15   1     0.02   0.02   0.01    -0.00   0.00   0.00    -0.17   0.02   0.08
  16   1    -0.02  -0.01  -0.01    -0.00   0.00  -0.00    -0.07   0.04  -0.03
  17   6    -0.01  -0.00   0.00    -0.01   0.02  -0.02    -0.03   0.14  -0.35
  18   1     0.00  -0.01   0.00    -0.01   0.00  -0.01    -0.14   0.02  -0.21
  19   1    -0.01   0.00  -0.01    -0.01   0.01  -0.01    -0.03   0.06  -0.16
  20   1    -0.01   0.01   0.01     0.00   0.02  -0.00     0.13   0.16  -0.11
  21   1     0.03  -0.02  -0.01     0.04  -0.02  -0.03     0.04  -0.01  -0.08
  22   6    -0.06  -0.04   0.01     0.08   0.08  -0.02    -0.00  -0.00   0.00
  23   8    -0.02  -0.02   0.00     0.04   0.06   0.01     0.00  -0.01   0.00
  24   7     0.06   0.07  -0.01    -0.17  -0.12   0.03     0.00   0.01  -0.01
  25   1    -0.03  -0.03   0.02     0.02   0.04  -0.03    -0.00  -0.00  -0.00
  26   1    -0.13  -0.13   0.07     0.35   0.37  -0.18    -0.05  -0.04   0.02
  27   7     0.07   0.12  -0.10    -0.13  -0.20   0.11     0.01   0.01  -0.02
  28   1    -0.16  -0.17   0.12     0.27   0.24  -0.21    -0.01  -0.02   0.01
  29   1    -0.05  -0.08   0.04     0.03   0.09  -0.08    -0.01  -0.01   0.00
  30   6     0.03   0.05   0.03    -0.02  -0.00   0.00    -0.00   0.00   0.00
  31   8     0.06   0.02   0.03     0.02  -0.03  -0.00     0.00   0.01   0.01
  32   7    -0.17  -0.18  -0.05    -0.04  -0.06   0.03    -0.00   0.00   0.01
  33   1     0.14   0.14   0.03     0.00  -0.01  -0.02     0.00   0.00   0.00
  34   1     0.36   0.57   0.19     0.18   0.29   0.11     0.00   0.00   0.00
  35   7     0.02   0.03  -0.05     0.01   0.07   0.00    -0.00   0.00  -0.00
  36   1    -0.10  -0.30  -0.09    -0.11  -0.25  -0.07     0.00   0.00  -0.00
  37   1     0.01  -0.04  -0.01    -0.00  -0.04   0.00    -0.00   0.00  -0.00
  38   6     0.01   0.01  -0.00    -0.03  -0.04   0.02    -0.01  -0.00  -0.01
  39   8     0.01   0.00  -0.01    -0.01  -0.02   0.00    -0.01  -0.00   0.01
  40   7    -0.01  -0.01   0.00     0.05   0.04  -0.01    -0.01   0.01  -0.01
  41   1     0.00   0.00  -0.00    -0.02  -0.02   0.01    -0.00   0.01  -0.01
  42   1    -0.01  -0.01   0.00    -0.03  -0.02   0.02     0.00   0.01   0.00
  43   7    -0.01  -0.01   0.01     0.06   0.08  -0.04     0.00  -0.00  -0.01
  44   1     0.04   0.03  -0.02    -0.22  -0.21   0.12     0.00   0.00  -0.00
  45   1    -0.00   0.01   0.00    -0.02  -0.04   0.01    -0.00  -0.00  -0.00
  46   6    -0.00  -0.04   0.00     0.01   0.03  -0.00     0.00   0.00  -0.00
  47   8    -0.01  -0.01  -0.00     0.00   0.02  -0.01    -0.00  -0.00  -0.00
  48   7     0.01   0.10   0.00    -0.01  -0.03   0.00    -0.00  -0.00   0.00
  49   1    -0.01  -0.03   0.00     0.00  -0.00   0.01     0.00   0.00   0.00
  50   1    -0.03  -0.27   0.03     0.01   0.11  -0.01    -0.00   0.01  -0.00
  51   7     0.02   0.08  -0.02    -0.00  -0.03  -0.00     0.00  -0.00   0.00
  52   1    -0.01  -0.10   0.02     0.00  -0.02   0.00     0.00   0.00  -0.00
  53   1    -0.01  -0.04   0.01     0.01   0.04  -0.00     0.00   0.00   0.00
                     40                     41                     42
                        a                      a                      a 
 Frequencies --   427.6549               463.5945               465.8214
 Red. masses --     2.7822                 7.2552                 6.6060
 Frc consts  --     0.0000                 0.0000                 0.0000
 IR Inten    --   504.1340                 6.1814                 4.5677
 Raman Activ --     0.0000                 0.0000                 0.0000
 Depolar     --     0.0000                 0.0000                 0.0000
 Atom AN      X      Y      Z        X      Y      Z        X      Y      Z
   1   8     0.00  -0.01   0.00    -0.01   0.00   0.04     0.01  -0.01  -0.02
   2   6    -0.01   0.00   0.01     0.10  -0.03  -0.05    -0.05   0.02   0.03
   3   1    -0.00   0.00   0.00     0.02   0.00  -0.01    -0.01  -0.00   0.01
   4   1     0.00   0.00   0.00     0.04  -0.00  -0.03    -0.02   0.00   0.02
   5   6    -0.01   0.01   0.01     0.11  -0.11  -0.02    -0.07   0.07   0.00
   6   1     0.00  -0.00   0.01     0.06  -0.10   0.03    -0.04   0.07  -0.03
   7   1     0.01   0.01   0.00     0.08   0.03   0.00    -0.05  -0.02  -0.01
   8   7    -0.02   0.01  -0.01    -0.17  -0.13  -0.12     0.11   0.08   0.08
   9   6     0.00   0.01  -0.02     0.04   0.16  -0.08    -0.03  -0.12   0.05
  10   1     0.00   0.01  -0.01    -0.00   0.11  -0.09     0.00  -0.07   0.06
  11   1     0.00   0.00  -0.01     0.05   0.04   0.04    -0.04  -0.03  -0.02
  12   1     0.01  -0.00  -0.00     0.06   0.08   0.01    -0.04  -0.05  -0.00
  13   6     0.01  -0.01   0.01     0.13   0.13   0.15    -0.09  -0.08  -0.10
  14   1     0.00  -0.01   0.01    -0.01   0.05   0.16     0.00  -0.03  -0.11
  15   1     0.02  -0.00  -0.00     0.10   0.07   0.02    -0.07  -0.04  -0.02
  16   1     0.00  -0.01   0.01     0.11   0.07   0.02    -0.07  -0.04  -0.01
  17   6    -0.01  -0.01   0.00    -0.26  -0.12   0.01     0.17   0.08  -0.00
  18   1     0.00  -0.01   0.00    -0.05   0.00   0.03     0.03  -0.00  -0.02
  19   1     0.00  -0.00  -0.00    -0.10  -0.05   0.02     0.06   0.03  -0.01
  20   1    -0.01  -0.00   0.00    -0.08  -0.04   0.00     0.05   0.03  -0.00
  21   1    -0.00  -0.00  -0.00    -0.03   0.02   0.04     0.00  -0.00  -0.01
  22   6    -0.03  -0.02   0.01     0.05   0.07   0.17     0.01   0.02   0.04
  23   8    -0.01  -0.02  -0.00     0.18  -0.04   0.15     0.05  -0.02   0.04
  24   7     0.07   0.05  -0.01    -0.21   0.15  -0.07    -0.06   0.04  -0.01
  25   1    -0.00  -0.01   0.01    -0.05  -0.01  -0.12    -0.01   0.00  -0.03
  26   1    -0.14  -0.15   0.07    -0.17   0.07   0.02    -0.03   0.03  -0.00
  27   7     0.04   0.07  -0.04     0.06  -0.10  -0.17     0.02  -0.03  -0.05
  28   1    -0.11  -0.10   0.08     0.23  -0.11  -0.15     0.06  -0.03  -0.04
  29   1    -0.00  -0.03   0.03    -0.31  -0.21  -0.10    -0.08  -0.05  -0.03
  30   6    -0.00   0.00   0.01     0.02   0.03  -0.04     0.03   0.07  -0.07
  31   8    -0.00   0.00   0.02     0.01   0.05  -0.03     0.03   0.06  -0.07
  32   7     0.01   0.03  -0.01     0.03  -0.05   0.02     0.05  -0.12   0.06
  33   1     0.01   0.02   0.00     0.00  -0.01   0.03    -0.03  -0.06   0.05
  34   1    -0.08  -0.11  -0.04     0.05   0.00   0.01     0.14   0.05   0.05
  35   7     0.02  -0.02  -0.01    -0.07  -0.03   0.05    -0.12  -0.05   0.05
  36   1     0.03   0.06   0.01     0.00   0.13   0.05     0.01   0.22   0.07
  37   1     0.01   0.04  -0.01    -0.02  -0.03   0.02    -0.03  -0.03   0.04
  38   6    -0.07  -0.08   0.04     0.02  -0.03   0.00    -0.04   0.08  -0.02
  39   8    -0.02  -0.06   0.01     0.02  -0.02   0.03    -0.05   0.05  -0.08
  40   7     0.13   0.11  -0.02    -0.02   0.04   0.02     0.06  -0.07  -0.05
  41   1    -0.09  -0.07   0.03    -0.00   0.05  -0.04    -0.07  -0.18   0.12
  42   1    -0.05  -0.02   0.04    -0.04   0.01   0.05     0.11  -0.00  -0.13
  43   7     0.13   0.19  -0.11    -0.01  -0.00  -0.06     0.01   0.01   0.11
  44   1    -0.56  -0.54   0.31    -0.01  -0.02  -0.03    -0.04  -0.01   0.11
  45   1     0.02  -0.05  -0.01    -0.02   0.01  -0.01     0.09  -0.01   0.01
  46   6     0.01  -0.01  -0.00     0.01   0.01   0.04     0.02   0.04   0.18
  47   8    -0.00  -0.00  -0.00    -0.04   0.02   0.04    -0.15   0.07   0.17
  48   7     0.01   0.05   0.01     0.06  -0.02  -0.02     0.24  -0.07  -0.08
  49   1    -0.00  -0.01   0.00     0.01   0.01  -0.03     0.03  -0.01  -0.12
  50   1    -0.02  -0.13   0.01     0.03  -0.03   0.00     0.16  -0.06  -0.01
  51   7     0.01   0.04  -0.03    -0.03   0.01  -0.04    -0.13   0.02  -0.17
  52   1    -0.01  -0.12   0.02    -0.05   0.06  -0.03    -0.22   0.20  -0.12
  53   1     0.00   0.03  -0.00     0.01  -0.08  -0.04     0.03  -0.33  -0.18
                     43                     44                     45
                        a                      a                      a 
 Frequencies --   469.9709               470.5239               474.8341
 Red. masses --     4.5034                 4.9653                 5.3424
 Frc consts  --     0.0000                 0.0000                 0.0000
 IR Inten    --     4.9725                17.5740                13.2804
 Raman Activ --     0.0000                 0.0000                 0.0000
 Depolar     --     0.0000                 0.0000                 0.0000
 Atom AN      X      Y      Z        X      Y      Z        X      Y      Z
   1   8    -0.02   0.01   0.03    -0.03   0.01   0.07     0.03  -0.01  -0.06
   2   6     0.01  -0.01   0.01     0.12  -0.03  -0.04    -0.06   0.02   0.01
   3   1    -0.01   0.00   0.01     0.01   0.01  -0.01    -0.00  -0.01  -0.00
   4   1     0.01   0.00  -0.00     0.06   0.00  -0.04    -0.03  -0.00   0.02
   5   6    -0.03  -0.03  -0.03     0.08  -0.15  -0.05    -0.00   0.08   0.05
   6   1    -0.02   0.03  -0.04     0.04  -0.07  -0.01     0.01   0.00   0.04
   7   1    -0.05  -0.04  -0.01     0.03  -0.01  -0.00     0.03   0.04   0.01
   8   7     0.08  -0.01   0.02    -0.09  -0.16  -0.11    -0.03   0.08   0.03
   9   6    -0.02  -0.05   0.06     0.03   0.14   0.00     0.00  -0.02  -0.06
  10   1    -0.01  -0.02   0.04    -0.01   0.10  -0.04     0.01  -0.02  -0.02
  11   1    -0.02  -0.02   0.02     0.06   0.03   0.07    -0.01   0.00  -0.05
  12   1    -0.03  -0.00   0.00     0.03   0.07   0.01     0.02  -0.02  -0.01
  13   6    -0.02   0.01  -0.07     0.11   0.15   0.09    -0.03  -0.07   0.03
  14   1    -0.00   0.02  -0.05    -0.02   0.07   0.12     0.01  -0.04  -0.00
  15   1    -0.04  -0.01  -0.01     0.06   0.06   0.02     0.01  -0.02  -0.00
  16   1    -0.00   0.00  -0.03     0.11   0.08  -0.01    -0.04  -0.04   0.03
  17   6     0.05   0.06   0.02    -0.23  -0.05   0.01     0.06  -0.03  -0.02
  18   1     0.01   0.02   0.01    -0.04   0.03   0.03     0.01  -0.03  -0.02
  19   1    -0.01   0.02  -0.01    -0.12  -0.03   0.01     0.06  -0.00   0.00
  20   1     0.02   0.03   0.01    -0.06   0.00   0.01     0.01  -0.03  -0.02
  21   1     0.02  -0.02  -0.01    -0.03   0.02   0.05    -0.01   0.01  -0.01
  22   6     0.01   0.04   0.05    -0.01  -0.04  -0.05    -0.00   0.01  -0.04
  23   8     0.09  -0.03   0.03    -0.11   0.03  -0.03     0.01   0.00  -0.04
  24   7    -0.09   0.03   0.01     0.09  -0.04  -0.01     0.01  -0.05   0.04
  25   1    -0.00   0.02  -0.04    -0.01  -0.03   0.04     0.02   0.02   0.02
  26   1    -0.08  -0.01   0.02     0.09   0.02  -0.03     0.02  -0.04   0.01
  27   7     0.03   0.02  -0.06    -0.04  -0.03   0.07    -0.01   0.06   0.03
  28   1     0.16  -0.00  -0.10    -0.17   0.01   0.11     0.06   0.07  -0.04
  29   1    -0.28  -0.24   0.03     0.30   0.26  -0.03    -0.13  -0.14   0.08
  30   6     0.00  -0.01   0.03    -0.01  -0.02   0.02    -0.01  -0.04   0.03
  31   8    -0.02  -0.00   0.03    -0.00  -0.01   0.03    -0.02  -0.03   0.03
  32   7    -0.03   0.02  -0.04    -0.03   0.02  -0.01    -0.02   0.04  -0.03
  33   1     0.02   0.02  -0.03     0.01   0.02  -0.01     0.01   0.01  -0.03
  34   1    -0.03   0.02  -0.01    -0.02   0.01  -0.00    -0.04   0.01  -0.01
  35   7     0.01  -0.04  -0.01     0.04   0.01  -0.03     0.05   0.01  -0.02
  36   1     0.03   0.02   0.01     0.02  -0.04  -0.02    -0.00  -0.08  -0.02
  37   1     0.01   0.02   0.00     0.01   0.03  -0.01     0.01   0.02  -0.01
  38   6    -0.05   0.13  -0.04    -0.04   0.09  -0.04     0.16  -0.09   0.05
  39   8    -0.07   0.10  -0.11    -0.04   0.08  -0.09     0.17  -0.10   0.08
  40   7     0.07  -0.10  -0.07     0.05  -0.06  -0.06    -0.07   0.22   0.12
  41   1    -0.17  -0.33   0.21    -0.18  -0.29   0.18    -0.39  -0.15   0.05
  42   1     0.24   0.04  -0.24     0.21   0.05  -0.20     0.19   0.25   0.05
  43   7    -0.00  -0.03   0.20    -0.01  -0.04   0.15    -0.17  -0.07  -0.21
  44   1     0.01   0.05   0.13    -0.01   0.02   0.11    -0.04  -0.08  -0.17
  45   1     0.14  -0.02   0.02     0.12  -0.01   0.01    -0.03   0.16  -0.08
  46   6    -0.03  -0.03  -0.12    -0.00   0.01   0.01     0.01   0.02  -0.08
  47   8     0.11  -0.06  -0.11    -0.02   0.02   0.00     0.03   0.02  -0.08
  48   7    -0.16   0.05   0.03     0.01  -0.04  -0.01    -0.10  -0.05   0.07
  49   1    -0.03  -0.01   0.08     0.00   0.02  -0.01    -0.00   0.05   0.06
  50   1    -0.10   0.09  -0.00     0.01  -0.03   0.00    -0.09  -0.03   0.01
  51   7     0.07  -0.03   0.11     0.00   0.02   0.01     0.10   0.04   0.08
  52   1     0.15  -0.16   0.09    -0.02   0.15  -0.04     0.07   0.24  -0.04
  53   1    -0.01   0.30   0.12    -0.02  -0.22  -0.00    -0.07  -0.37   0.08
                     46                     47                     48
                        a                      a                      a 
 Frequencies --   475.4335               478.6808               483.3516
 Red. masses --     5.4640                 5.7499                 7.8509
 Frc consts  --     0.0000                 0.0000                 0.0000
 IR Inten    --    59.9063                25.4544                14.6627
 Raman Activ --     0.0000                 0.0000                 0.0000
 Depolar     --     0.0000                 0.0000                 0.0000
 Atom AN      X      Y      Z        X      Y      Z        X      Y      Z
   1   8    -0.03   0.01   0.04     0.01  -0.00  -0.02     0.07  -0.04  -0.11
   2   6     0.04  -0.02  -0.01    -0.02   0.01   0.01    -0.05   0.03  -0.02
   3   1    -0.01   0.01   0.01     0.01  -0.01  -0.00     0.07  -0.07  -0.06
   4   1     0.03   0.01  -0.02    -0.01  -0.00   0.01    -0.10  -0.04   0.05
   5   6     0.01  -0.10  -0.03    -0.02   0.05  -0.00     0.15   0.29   0.13
   6   1    -0.00  -0.02  -0.02    -0.01   0.02  -0.00     0.10  -0.06   0.15
   7   1    -0.01  -0.03  -0.00    -0.01   0.00  -0.00     0.17   0.18   0.02
   8   7     0.02  -0.08  -0.05     0.02   0.04   0.04    -0.28   0.19   0.10
   9   6     0.00   0.04   0.04    -0.01  -0.05   0.00     0.06   0.04  -0.23
  10   1    -0.01   0.03   0.01     0.01  -0.03   0.01     0.04  -0.00  -0.13
  11   1     0.02   0.00   0.05    -0.02  -0.01  -0.02    -0.00   0.04  -0.16
  12   1    -0.01   0.04   0.00    -0.00  -0.02  -0.00     0.12  -0.06   0.00
  13   6     0.05   0.07  -0.02    -0.04  -0.04  -0.01    -0.08  -0.14   0.27
  14   1    -0.00   0.04   0.02     0.00  -0.02  -0.03     0.01  -0.11   0.11
  15   1     0.01   0.03   0.00    -0.02  -0.02  -0.00     0.08  -0.02   0.03
  16   1     0.05   0.04  -0.03    -0.03  -0.02   0.01    -0.08  -0.07   0.12
  17   6    -0.08   0.02   0.02     0.06   0.01  -0.01     0.03  -0.24  -0.09
  18   1    -0.01   0.03   0.03     0.01  -0.01  -0.01    -0.04  -0.13  -0.08
  19   1    -0.07  -0.00  -0.00     0.04   0.01  -0.00     0.17  -0.05   0.03
  20   1    -0.02   0.02   0.02     0.02  -0.00  -0.01     0.01  -0.15  -0.09
  21   1     0.01  -0.01  -0.00    -0.03   0.02   0.01    -0.07   0.04   0.03
  22   6    -0.03  -0.00  -0.18     0.02   0.02   0.10    -0.00   0.00  -0.03
  23   8    -0.05   0.03  -0.19     0.07  -0.02   0.11    -0.01   0.01  -0.04
  24   7     0.12  -0.19   0.14    -0.10   0.10  -0.06     0.02  -0.04   0.02
  25   1     0.10   0.07   0.11    -0.05  -0.03  -0.06     0.01   0.00   0.02
  26   1     0.08  -0.18   0.04    -0.06   0.09  -0.01     0.03  -0.02  -0.00
  27   7    -0.04   0.24   0.14     0.03  -0.10  -0.09    -0.02   0.03   0.03
  28   1     0.11   0.26  -0.09     0.01  -0.13   0.00     0.01   0.05  -0.01
  29   1    -0.29  -0.37   0.28     0.01   0.06  -0.12    -0.03  -0.04   0.04
  30   6    -0.03  -0.04   0.04    -0.00  -0.04   0.04    -0.01  -0.03   0.01
  31   8    -0.01  -0.05   0.04    -0.02  -0.03   0.04    -0.01  -0.02   0.02
  32   7    -0.03   0.06  -0.00    -0.03   0.07  -0.05    -0.01   0.03  -0.01
  33   1     0.00   0.02  -0.02     0.03   0.03  -0.04     0.00   0.00  -0.02
  34   1    -0.07  -0.04  -0.02    -0.07  -0.01  -0.03    -0.03  -0.01  -0.01
  35   7     0.08   0.05  -0.05     0.05  -0.00  -0.00     0.04   0.03  -0.01
  36   1    -0.00  -0.14  -0.05     0.01  -0.07  -0.02    -0.02  -0.09  -0.03
[...]
  44   1    -0.00   0.00  -0.00     0.00  -0.00   0.00    -0.20   0.15  -0.11
  45   1     0.01   0.00   0.04    -0.00  -0.00  -0.01     0.23   0.08   0.90
  46   6    -0.01   0.00   0.00     0.00  -0.00  -0.00     0.00  -0.00  -0.01
  47   8    -0.00   0.00   0.00     0.00  -0.00  -0.00    -0.00   0.00   0.00
  48   7    -0.17   0.03   0.04     0.03  -0.01  -0.01     0.01  -0.00   0.00
  49   1     0.64  -0.13  -0.25    -0.12   0.03   0.05    -0.03   0.01   0.01
  50   1    -0.02   0.01   0.09     0.00  -0.00  -0.02     0.00  -0.00  -0.01
  51   7     0.00   0.00  -0.00    -0.00   0.00   0.00     0.00  -0.00   0.00
  52   1     0.00  -0.00  -0.01    -0.00   0.00   0.00    -0.00   0.00   0.01
  53   1     0.01  -0.00   0.01    -0.00   0.00  -0.00    -0.02   0.00  -0.01
                    142                    143                    144
                        a                      a                      a 
 Frequencies --  3447.9463              3492.7284              3499.1082
 Red. masses --     1.8776                 1.4552                 1.4506
 Frc consts  --     0.0000                 0.0000                 0.0000
 IR Inten    --   177.8582                18.3057                18.7626
 Raman Activ --     0.0000                 0.0000                 0.0000
 Depolar     --     0.0000                 0.0000                 0.0000
 Atom AN      X      Y      Z        X      Y      Z        X      Y      Z
   1   8     0.12   0.21  -0.01     0.00   0.00  -0.00    -0.00  -0.00   0.00
   2   6     0.01   0.01   0.00    -0.00   0.00  -0.00    -0.00   0.00  -0.00
   3   1    -0.01  -0.01   0.00     0.00   0.00   0.00     0.00   0.00  -0.00
   4   1    -0.00  -0.00   0.00     0.00  -0.00   0.00     0.00  -0.00  -0.00
   5   6     0.00   0.00  -0.00     0.00   0.00   0.00     0.00  -0.00   0.00
   6   1    -0.01  -0.00   0.00    -0.00  -0.00  -0.00     0.00   0.00   0.00
   7   1     0.00  -0.00   0.00    -0.00   0.00  -0.00    -0.00   0.00  -0.00
   8   7     0.00   0.00  -0.00     0.00   0.00   0.00    -0.00   0.00   0.00
   9   6     0.00   0.00   0.00     0.00   0.00   0.00    -0.00  -0.00   0.00
  10   1    -0.00  -0.00   0.00    -0.00  -0.00  -0.00     0.00   0.00   0.00
  11   1    -0.00  -0.00  -0.00     0.00   0.00   0.00    -0.00   0.00   0.00
  12   1     0.00   0.00  -0.00    -0.00   0.00   0.00     0.00  -0.00  -0.00
  13   6     0.00   0.00   0.00     0.00   0.00   0.00     0.00  -0.00  -0.00
  14   1    -0.00  -0.00  -0.00    -0.00  -0.00  -0.00     0.00   0.00   0.00
  15   1    -0.00  -0.00   0.00     0.00   0.00   0.00    -0.00   0.00  -0.00
  16   1     0.00  -0.00  -0.00     0.00   0.00   0.00    -0.00   0.00   0.00
  17   6    -0.00   0.00  -0.00     0.00  -0.00   0.00     0.00  -0.00   0.00
  18   1    -0.00   0.00   0.00    -0.00  -0.00   0.00     0.00  -0.00  -0.00
  19   1     0.00  -0.00  -0.00     0.00   0.00  -0.00    -0.00   0.00   0.00
  20   1     0.00  -0.00   0.00     0.00   0.00  -0.00    -0.00   0.00  -0.00
  21   1    -0.50  -0.83   0.01    -0.00  -0.00   0.00     0.00   0.00  -0.00
  22   6     0.00  -0.00  -0.00    -0.00  -0.00  -0.00     0.00  -0.00   0.00
  23   8     0.00   0.00   0.00     0.00   0.00   0.00    -0.00   0.00  -0.00
  24   7    -0.01   0.01   0.00     0.01  -0.00   0.01    -0.00   0.00   0.00
  25   1     0.04  -0.02   0.01    -0.01   0.01  -0.00     0.00  -0.00   0.00
  26   1    -0.01  -0.00  -0.02    -0.01  -0.00  -0.03    -0.00  -0.00  -0.00
  27   7     0.00   0.00   0.00    -0.16   0.07  -0.05     0.00  -0.00   0.00
  28   1    -0.00  -0.00  -0.00     0.31   0.17   0.61    -0.00  -0.00  -0.00
  29   1    -0.00   0.00   0.00     0.30  -0.44  -0.43    -0.00   0.00   0.00
  30   6     0.00   0.00  -0.01    -0.00   0.00  -0.00     0.00  -0.00  -0.00
  31   8    -0.00  -0.00   0.01     0.00  -0.00   0.00    -0.00   0.00   0.00
  32   7    -0.01   0.01   0.00     0.00  -0.00  -0.00    -0.00  -0.00   0.00
  33   1     0.02  -0.03   0.01    -0.01   0.01  -0.00     0.00  -0.00   0.00
  34   1     0.00   0.00  -0.01    -0.00  -0.00   0.01     0.00   0.00  -0.00
  35   7     0.01  -0.00  -0.00     0.00  -0.00   0.00    -0.00   0.00  -0.00
  36   1     0.00   0.00  -0.00     0.00   0.00  -0.00    -0.00  -0.00   0.01
  37   1    -0.03   0.00   0.01    -0.00  -0.00   0.00     0.01   0.00  -0.00
  38   6     0.00  -0.00   0.00    -0.00   0.00  -0.00    -0.00   0.00  -0.00
  39   8    -0.00   0.00  -0.00     0.00  -0.00   0.00     0.00  -0.00   0.00
  40   7    -0.00   0.00  -0.00     0.00  -0.00   0.00     0.00  -0.00   0.00
  41   1    -0.00   0.00   0.00     0.00  -0.00  -0.00     0.01  -0.01  -0.01
  42   1     0.00  -0.00   0.00    -0.00   0.00  -0.00    -0.01   0.01  -0.01
  43   7     0.00  -0.00  -0.00    -0.00   0.00   0.00    -0.00   0.00   0.00
  44   1    -0.00   0.00  -0.00     0.00  -0.00   0.00     0.01  -0.01   0.01
  45   1     0.00   0.00   0.01    -0.00  -0.00  -0.00    -0.00  -0.00  -0.02
  46   6    -0.00  -0.00  -0.00    -0.00   0.00   0.00     0.00  -0.00  -0.00
  47   8     0.00   0.00  -0.00     0.00  -0.00   0.00     0.00   0.00   0.00
  48   7     0.01  -0.00  -0.00     0.00  -0.00   0.00    -0.01   0.00   0.01
  49   1    -0.04   0.01   0.02    -0.00   0.00   0.00     0.01  -0.00  -0.00
  50   1     0.00  -0.00  -0.01     0.00  -0.00  -0.00     0.00  -0.00  -0.04
  51   7     0.00   0.00  -0.00     0.00  -0.00  -0.00     0.16  -0.06  -0.07
  52   1    -0.00   0.00   0.00    -0.00   0.00   0.00    -0.07   0.17   0.70
  53   1    -0.00  -0.00  -0.00    -0.00   0.00  -0.00    -0.52   0.05  -0.42
                    145                    146                    147
                        a                      a                      a 
 Frequencies --  3501.0815              3524.9131              3533.0962
 Red. masses --     1.4521                 1.8972                 1.9987
 Frc consts  --     0.0000                 0.0000                 0.0000
 IR Inten    --    17.2937                 7.1081                24.1602
 Raman Activ --     0.0000                 0.0000                 0.0000
 Depolar     --     0.0000                 0.0000                 0.0000
 Atom AN      X      Y      Z        X      Y      Z        X      Y      Z
   1   8     0.00  -0.00   0.00     0.00   0.00   0.00    -0.00   0.00   0.00
   2   6     0.00   0.00  -0.00     0.00  -0.00  -0.00    -0.00  -0.00  -0.00
   3   1    -0.00  -0.00   0.00     0.00   0.00   0.00     0.00   0.00  -0.00
   4   1     0.00  -0.00  -0.00    -0.00   0.00  -0.00     0.00  -0.00   0.00
   5   6     0.00  -0.00   0.00    -0.00  -0.00   0.00     0.00  -0.00   0.00
   6   1     0.00  -0.00   0.00     0.00   0.00  -0.00    -0.00  -0.00   0.00
   7   1    -0.00   0.00  -0.00     0.00   0.00  -0.00    -0.00   0.00  -0.00
   8   7    -0.00   0.00  -0.00     0.00  -0.00  -0.00    -0.00  -0.00   0.00
   9   6     0.00   0.00   0.00     0.00   0.00  -0.00     0.00   0.00  -0.00
  10   1    -0.00  -0.00   0.00    -0.00  -0.00  -0.00    -0.00  -0.00  -0.00
  11   1     0.00  -0.00   0.00     0.00  -0.00   0.00     0.00  -0.00   0.00
  12   1     0.00   0.00  -0.00    -0.00  -0.00   0.00     0.00  -0.00  -0.00
  13   6     0.00  -0.00   0.00     0.00   0.00   0.00     0.00   0.00  -0.00
  14   1    -0.00  -0.00  -0.00    -0.00  -0.00  -0.00    -0.00  -0.00  -0.00
  15   1    -0.00   0.00  -0.00     0.00  -0.00   0.00    -0.00   0.00   0.00
  16   1     0.00  -0.00   0.00     0.00  -0.00  -0.00    -0.00   0.00   0.00
  17   6     0.00  -0.00   0.00    -0.00   0.00  -0.00    -0.00  -0.00   0.00
  18   1     0.00  -0.00   0.00    -0.00   0.00  -0.00     0.00   0.00  -0.00
  19   1     0.00  -0.00   0.00    -0.00  -0.00   0.00     0.00   0.00   0.00
  20   1    -0.00   0.00  -0.00     0.00  -0.00   0.00     0.00   0.00  -0.00
  21   1     0.00   0.00  -0.00    -0.00  -0.00   0.00     0.00  -0.00  -0.00
  22   6    -0.00   0.00  -0.00     0.00   0.00   0.00     0.00  -0.00   0.00
  23   8     0.00  -0.00   0.00    -0.00   0.00  -0.00    -0.00   0.00  -0.00
  24   7     0.00  -0.00  -0.00     0.00   0.00   0.00     0.00   0.00   0.00
  25   1    -0.00   0.00  -0.00     0.00   0.00   0.00     0.00  -0.00   0.00
  26   1     0.00   0.00   0.00    -0.00  -0.00  -0.01    -0.00  -0.00  -0.00
  27   7    -0.00   0.00   0.00    -0.00  -0.00  -0.00    -0.00  -0.00  -0.00
  28   1     0.00   0.00   0.00     0.00   0.00   0.00     0.00   0.00   0.00
  29   1     0.00  -0.00  -0.00    -0.00   0.00   0.00    -0.00   0.00   0.00
  30   6    -0.00   0.00  -0.00     0.01  -0.00  -0.01     0.00  -0.00   0.00
  31   8     0.00  -0.00   0.00    -0.00   0.00   0.00    -0.00   0.00   0.00
  32   7     0.00  -0.00  -0.00    -0.00  -0.03   0.07    -0.00  -0.00   0.00
  33   1    -0.00   0.00  -0.00    -0.03   0.03  -0.01    -0.00   0.00  -0.00
  34   1    -0.00  -0.00   0.00     0.02   0.07  -0.27     0.00   0.00  -0.02
  35   7     0.00   0.00  -0.00     0.04   0.05  -0.24    -0.00  -0.00   0.00
  36   1    -0.00  -0.00   0.00    -0.09  -0.19   0.89     0.00   0.00  -0.01
  37   1     0.00  -0.00  -0.00    -0.08   0.00   0.01     0.01   0.00  -0.00
  38   6    -0.00   0.00  -0.00     0.00   0.00   0.00     0.01  -0.00   0.01
  39   8     0.00  -0.00   0.00    -0.00   0.00  -0.00    -0.00   0.00  -0.00
  40   7    -0.06   0.01  -0.17     0.00  -0.00   0.00    -0.01   0.02   0.01
  41   1    -0.25   0.46   0.39     0.00  -0.00  -0.00     0.03  -0.06  -0.05
  42   1     0.45  -0.51   0.27    -0.00   0.00  -0.00     0.01  -0.01   0.01
  43   7     0.01  -0.00   0.01     0.00  -0.00  -0.00     0.19  -0.13   0.14
  44   1    -0.02   0.02  -0.01    -0.00   0.00  -0.00    -0.70   0.52  -0.31
  45   1    -0.01  -0.00  -0.03     0.00   0.00   0.00    -0.04  -0.03  -0.23
  46   6    -0.00  -0.00  -0.00    -0.00  -0.00  -0.00    -0.00   0.00   0.00
  47   8     0.00   0.00   0.00    -0.00  -0.00   0.00     0.00  -0.00  -0.00
  48   7    -0.00   0.00   0.00     0.00  -0.00  -0.00    -0.00  -0.00  -0.00
  49   1     0.00  -0.00  -0.00    -0.00   0.00   0.00     0.00  -0.00  -0.00
  50   1     0.00  -0.00  -0.00    -0.00   0.00   0.01    -0.00   0.00   0.01
  51   7     0.00  -0.00  -0.00    -0.00   0.00   0.00     0.00  -0.00  -0.00
  52   1    -0.00   0.00   0.02     0.00  -0.00  -0.01    -0.00   0.00   0.02
  53   1    -0.01   0.00  -0.01    -0.00   0.00  -0.00    -0.00  -0.00  -0.00
                    148                    149                    150
                        a                      a                      a 
 Frequencies --  3535.0546              3540.0993              3540.5501
 Red. masses --     1.9242                 1.9141                 1.9170
 Frc consts  --     0.0000                 0.0000                 0.0000
 IR Inten    --    25.3467                 8.0026                27.1563
 Raman Activ --     0.0000                 0.0000                 0.0000
 Depolar     --     0.0000                 0.0000                 0.0000
 Atom AN      X      Y      Z        X      Y      Z        X      Y      Z
   1   8     0.00   0.00   0.00     0.00   0.00  -0.00     0.00   0.00  -0.00
   2   6     0.00  -0.00  -0.00     0.00   0.00   0.00     0.00  -0.00   0.00
   3   1     0.00   0.00   0.00    -0.00   0.00   0.00     0.00  -0.00   0.00
   4   1    -0.00   0.00  -0.00    -0.00  -0.00   0.00    -0.00   0.00  -0.00
   5   6    -0.00   0.00   0.00    -0.00  -0.00  -0.00     0.00   0.00  -0.00
   6   1    -0.00  -0.00  -0.00     0.00   0.00   0.00    -0.00  -0.00   0.00
   7   1     0.00   0.00   0.00    -0.00  -0.00  -0.00    -0.00  -0.00   0.00
   8   7     0.00   0.00  -0.00    -0.00   0.00   0.00     0.00  -0.00  -0.00
   9   6    -0.00  -0.00  -0.00     0.00   0.00   0.00     0.00   0.00   0.00
  10   1     0.00   0.00   0.00    -0.00  -0.00  -0.00    -0.00  -0.00  -0.00
  11   1    -0.00   0.00   0.00     0.00   0.00  -0.00    -0.00   0.00   0.00
  12   1    -0.00  -0.00   0.00     0.00   0.00  -0.00     0.00  -0.00  -0.00
  13   6    -0.00   0.00  -0.00     0.00   0.00  -0.00     0.00   0.00   0.00
  14   1     0.00   0.00   0.00    -0.00  -0.00   0.00    -0.00  -0.00  -0.00
  15   1     0.00  -0.00   0.00     0.00  -0.00   0.00    -0.00  -0.00   0.00
  16   1    -0.00  -0.00   0.00    -0.00   0.00   0.00    -0.00   0.00   0.00
  17   6    -0.00   0.00  -0.00     0.00  -0.00  -0.00    -0.00  -0.00   0.00
  18   1    -0.00  -0.00   0.00    -0.00  -0.00   0.00     0.00  -0.00  -0.00
  19   1    -0.00   0.00   0.00    -0.00   0.00  -0.00     0.00  -0.00   0.00
  20   1     0.00  -0.00   0.00     0.00  -0.00   0.00    -0.00   0.00   0.00
  21   1    -0.00  -0.00   0.00    -0.00  -0.00  -0.00    -0.01  -0.01   0.00
  22   6    -0.00  -0.00  -0.00    -0.01   0.00  -0.00    -0.00   0.00  -0.00
  23   8     0.00  -0.00   0.00     0.00  -0.00   0.00     0.00  -0.00   0.00
  24   7    -0.00   0.00  -0.01    -0.08  -0.02  -0.21    -0.05  -0.01  -0.12
  25   1     0.01  -0.00   0.00     0.06  -0.05   0.01     0.04  -0.03   0.01
  26   1     0.01   0.00   0.02     0.27   0.09   0.76     0.16   0.06   0.45
  27   7     0.00   0.00   0.00    -0.00   0.03   0.04    -0.00   0.02   0.02
  28   1    -0.01  -0.00  -0.01    -0.04  -0.02  -0.07    -0.02  -0.01  -0.04
  29   1     0.00  -0.01  -0.01     0.05  -0.08  -0.07     0.03  -0.05  -0.04
  30   6    -0.00   0.00  -0.01     0.00  -0.00  -0.00     0.00   0.00  -0.00
  31   8     0.00  -0.00   0.00     0.00  -0.00   0.00    -0.00  -0.00   0.00
  32   7     0.00   0.08  -0.24    -0.00  -0.00   0.01    -0.00   0.00  -0.00
  33   1     0.08  -0.09   0.03    -0.00   0.00  -0.00     0.00  -0.00   0.00
  34   1    -0.08  -0.23   0.88     0.00   0.01  -0.03    -0.00  -0.00   0.00
  35   7     0.01   0.02  -0.07     0.00   0.00  -0.00     0.00  -0.00   0.00
  36   1    -0.03  -0.06   0.27    -0.00  -0.00   0.00     0.00   0.00  -0.01
  37   1    -0.02   0.00   0.00    -0.00   0.00   0.00    -0.00   0.00   0.00
  38   6     0.00  -0.00   0.00     0.00  -0.00   0.00    -0.00   0.00  -0.00
  39   8    -0.00   0.00  -0.00    -0.00   0.00  -0.00     0.00  -0.00   0.00
  40   7    -0.00   0.00   0.00    -0.00   0.00   0.00     0.00  -0.00  -0.00
  41   1     0.00  -0.00  -0.00     0.00  -0.00  -0.00    -0.00   0.00   0.00
  42   1    -0.00   0.00  -0.00     0.00  -0.00   0.00    -0.00   0.00  -0.00
  43   7     0.00  -0.00   0.00     0.00  -0.00   0.00    -0.00   0.00  -0.00
  44   1    -0.01   0.01  -0.01    -0.00   0.00  -0.00     0.00  -0.00   0.00
  45   1    -0.00  -0.00  -0.00    -0.00  -0.00  -0.00     0.00   0.00   0.00
  46   6    -0.00  -0.00  -0.00    -0.00   0.00   0.00     0.01  -0.00  -0.01
  47   8    -0.00  -0.00   0.00     0.00  -0.00  -0.00    -0.00   0.00   0.00
  48   7     0.00   0.00   0.00    -0.02   0.02   0.13     0.04  -0.03  -0.22
  49   1    -0.00   0.00   0.00     0.04  -0.01  -0.01    -0.08   0.02   0.01
  50   1     0.00  -0.00  -0.02     0.06  -0.05  -0.48    -0.10   0.08   0.81
  51   7    -0.00   0.00   0.00    -0.01  -0.00  -0.01     0.02   0.00   0.02
  52   1     0.00  -0.00  -0.00    -0.00   0.01   0.02     0.00  -0.01  -0.03
  53   1    -0.00   0.00  -0.00     0.04  -0.00   0.03    -0.07   0.01  -0.05
                    151                    152                    153
                        a                      a                      a 
 Frequencies --  3555.2995              3564.3668              3567.1227
 Red. masses --     2.1667                 2.1790                 2.1809
 Frc consts  --     0.0000                 0.0000                 0.0000
 IR Inten    --    14.8191                16.3498                10.8449
 Raman Activ --     0.0000                 0.0000                 0.0000
 Depolar     --     0.0000                 0.0000                 0.0000
 Atom AN      X      Y      Z        X      Y      Z        X      Y      Z
   1   8    -0.00  -0.00  -0.00    -0.00  -0.00  -0.00     0.00   0.00   0.00
   2   6    -0.00   0.00   0.00    -0.00   0.00   0.00    -0.00  -0.00  -0.00
   3   1    -0.00  -0.00  -0.00    -0.00   0.00  -0.00     0.00   0.00  -0.00
   4   1     0.00  -0.00  -0.00     0.00  -0.00   0.00     0.00  -0.00   0.00
   5   6     0.00   0.00   0.00     0.00  -0.00   0.00     0.00  -0.00   0.00
   6   1    -0.00   0.00  -0.00     0.00   0.00   0.00    -0.00  -0.00   0.00
   7   1     0.00   0.00  -0.00     0.00  -0.00  -0.00    -0.00   0.00  -0.00
   8   7     0.00   0.00   0.00    -0.00   0.00   0.00     0.00   0.00   0.00
   9   6     0.00   0.00   0.00     0.00  -0.00   0.00     0.00   0.00  -0.00
  10   1    -0.00  -0.00  -0.00    -0.00   0.00   0.00    -0.00  -0.00   0.00
  11   1     0.00  -0.00  -0.00    -0.00   0.00  -0.00     0.00  -0.00   0.00
  12   1     0.00   0.00   0.00     0.00   0.00   0.00     0.00  -0.00  -0.00
  13   6     0.00   0.00   0.00     0.00  -0.00  -0.00     0.00  -0.00   0.00
  14   1    -0.00  -0.00  -0.00     0.00   0.00   0.00    -0.00  -0.00   0.00
  15   1     0.00   0.00   0.00     0.00  -0.00  -0.00    -0.00   0.00  -0.00
  16   1     0.00  -0.00  -0.00    -0.00   0.00   0.00     0.00  -0.00   0.00
  17   6     0.00  -0.00   0.00     0.00  -0.00  -0.00     0.00  -0.00   0.00
  18   1     0.00   0.00   0.00    -0.00  -0.00   0.00     0.00  -0.00   0.00
  19   1     0.00  -0.00  -0.00    -0.00   0.00   0.00     0.00  -0.00   0.00
  20   1     0.00   0.00  -0.00    -0.00  -0.00  -0.00    -0.00   0.00  -0.00
  21   1     0.00   0.00   0.00     0.00   0.00   0.00    -0.00  -0.00  -0.00
  22   6     0.00   0.01   0.01     0.00   0.00   0.00    -0.00  -0.00  -0.00
  23   8    -0.00  -0.00  -0.00    -0.00  -0.00  -0.00     0.00   0.00   0.00
  24   7     0.02   0.00   0.04     0.00  -0.00   0.00    -0.00  -0.00  -0.00
  25   1    -0.01   0.01  -0.00    -0.00   0.00  -0.00    -0.00  -0.00  -0.00
  26   1    -0.05  -0.02  -0.15    -0.00  -0.00  -0.00     0.00   0.00   0.00
  27   7     0.00   0.15   0.25     0.00   0.00   0.00     0.00  -0.00  -0.00
  28   1    -0.32  -0.15  -0.56    -0.00  -0.00  -0.00     0.00   0.00   0.00
  29   1     0.32  -0.43  -0.41     0.00  -0.00  -0.00    -0.00   0.00   0.00
  30   6    -0.00  -0.00   0.00     0.00  -0.00   0.00     0.00  -0.00   0.00
  31   8    -0.00   0.00  -0.00     0.00  -0.00  -0.00    -0.00   0.00   0.00
  32   7     0.00  -0.00   0.00     0.00  -0.00   0.00     0.00   0.00  -0.00
  33   1    -0.01   0.01  -0.00    -0.00   0.00  -0.00    -0.00   0.00  -0.00
  34   1     0.00   0.00  -0.01     0.00   0.00  -0.00    -0.00  -0.00   0.00
  35   7    -0.00  -0.00   0.00    -0.00  -0.00   0.00    -0.00   0.00   0.00
  36   1     0.00   0.00  -0.00     0.00   0.00  -0.01     0.00   0.00  -0.00
  37   1     0.00  -0.00  -0.00     0.01   0.00  -0.00     0.00  -0.00  -0.00
  38   6    -0.00   0.00  -0.00    -0.00   0.00   0.00     0.01  -0.01  -0.00
  39   8     0.00  -0.00   0.00     0.00  -0.00   0.00    -0.00   0.00   0.00
  40   7     0.00  -0.00  -0.00    -0.00   0.01   0.00     0.17  -0.24  -0.05
  41   1    -0.00   0.00   0.00     0.01  -0.01  -0.01    -0.26   0.49   0.44
  42   1    -0.00   0.00  -0.00     0.01  -0.01   0.01    -0.39   0.43  -0.25
  43   7    -0.00   0.00  -0.00     0.00  -0.00   0.00     0.01  -0.01   0.01
  44   1     0.00  -0.00   0.00    -0.01   0.00  -0.00    -0.06   0.04  -0.02
  45   1     0.00   0.00   0.00    -0.00  -0.00  -0.01    -0.00  -0.00  -0.02
  46   6    -0.00   0.00   0.00     0.00   0.00   0.01     0.00   0.00   0.00
  47   8    -0.00  -0.00  -0.00    -0.00  -0.00  -0.00    -0.00  -0.00  -0.00
  48   7    -0.00   0.00   0.00    -0.01   0.00   0.03    -0.00   0.00   0.00
  49   1     0.00  -0.00  -0.00     0.01  -0.00  -0.00     0.00  -0.00  -0.00
  50   1     0.00  -0.00  -0.00     0.01  -0.01  -0.10     0.00  -0.00  -0.00
  51   7    -0.00  -0.00  -0.00     0.12   0.03   0.27     0.00   0.00   0.01
  52   1    -0.00   0.00   0.00     0.09  -0.17  -0.62     0.00  -0.00  -0.02
  53   1     0.00  -0.00   0.00    -0.55   0.07  -0.42    -0.02   0.00  -0.01
