      -----------------------------------------------------------      
     |                   =====================                   |     
     |                           x T B                           |     
     |                   =====================                   |     
     |                         S. Grimme                         |     
     |          Mulliken Center for Theoretical Chemistry        |     
     |                    University of Bonn                     |     
      -----------------------------------------------------------      

   * xtb version 6.6.1 (unknown-commit) compiled by '@Linux' on 12/27/2023

   xtb is free software: you can redistribute it and/or modify it under
   the terms of the GNU Lesser General Public License as published by
   the Free Software Foundation, either version 3 of the License, or
   (at your option) any later version.
   
   xtb is distributed in the hope that it will be useful,
   but WITHOUT ANY WARRANTY; without even the implied warranty of
   MERCHANTABILITY or FITNESS FOR A PARTICULAR PURPOSE.  See the
   GNU Lesser General Public License for more details.
   
   Cite this work as:
   * C. Bannwarth, E. Caldeweyher, S. Ehlert, A. Hansen, P. Pracht,
     J. Seibert, S. Spicher, S. Grimme, WIREs Comput. Mol. Sci., 2020, 11,
     e01493. DOI: 10.1002/wcms.1493
   
   for GFN2-xTB:
   * C. Bannwarth, S. Ehlert and S. Grimme., J. Chem. Theory Comput., 2019,
     15, 1652-1671. DOI: 10.1021/acs.jctc.8b01176
   for GFN1-xTB:
   * S. Grimme, C. Bannwarth, P. Shushkov, J. Chem. Theory Comput., 2017,
     13, 1989-2009. DOI: 10.1021/acs.jctc.7b00118
   for GFN0-xTB:
   * P. Pracht, E. Caldeweyher, S. Ehlert, S. Grimme, ChemRxiv, 2019, preprint.
     DOI: 10.26434/chemrxiv.8326202.v1
   for GFN-FF:
   * S. Spicher and S. Grimme, Angew. Chem. Int. Ed., 2020, 59, 15665-15673.
     DOI: 10.1002/anie.202004239
   
   for ALPB and GBSA implicit solvation:
   * S. Ehlert, M. Stahn, S. Spicher, S. Grimme, J. Chem. Theory Comput.,
     2021, 17, 4250-4261. DOI: 10.1021/acs.jctc.1c00471
   
   for DFT-D4:
   * E. Caldeweyher, C. Bannwarth and S. Grimme, J. Chem. Phys., 2017,
     147, 034112. DOI: 10.1063/1.4993215
   * E. Caldeweyher, S. Ehlert, A. Hansen, H. Neugebauer, S. Spicher,
     C. Bannwarth and S. Grimme, J. Chem. Phys., 2019, 150, 154122.
     DOI: 10.1063/1.5090222
   * E. Caldeweyher, J.-M. Mewes, S. Ehlert and S. Grimme, Phys. Chem. Chem. Phys.
     2020, 22, 8499-8512. DOI: 10.1039/D0CP00502A
   
   for sTDA-xTB:
   * S. Grimme and C. Bannwarth, J. Chem. Phys., 2016, 145, 054103.
     DOI: 10.1063/1.4959605
   
   in the mass-spec context:
   * V. Asgeirsson, C. Bauer and S. Grimme, Chem. Sci., 2017, 8, 4879.
     DOI: 10.1039/c7sc00601b
   * J. Koopman and S. Grimme, ACS Omega 2019, 4, 12, 15120-15133.
     DOI: 10.1021/acsomega.9b02011
   
   for metadynamics refer to:
   * S. Grimme, J. Chem. Theory Comput., 2019, 155, 2847-2862
     DOI: 10.1021/acs.jctc.9b00143
   
   for SPH calculations refer to:
   * S. Spicher and S. Grimme, J. Chem. Theory Comput., 2021, 17, 1701-1714
     DOI: 10.1021/acs.jctc.0c01306
   
   with help from (in alphabetical order)
   P. Atkinson, C. Bannwarth, F. Bohle, G. Brandenburg, E. Caldeweyher
   M. Checinski, S. Dohm, S. Ehlert, S. Ehrlich, I. Gerasimov, C. Hölzer
   A. Katbashev, J. Koopman, C. Lavigne, S. Lehtola, F. März, M. Müller,
   F. Musil, H. Neugebauer, J. Pisarek, C. Plett, P. Pracht, F. Pultar,
   J. Seibert, P. Shushkov, S. Spicher, M. Stahn, M. Steiner, T. Strunk,
   J. Stückrath, T. Rose, and J. Unsleber
   
 * started run on 2024/01/10 at 18:34:36.765     

           -------------------------------------------------
          |                Calculation Setup                |
           -------------------------------------------------

          program call               : xtb struc.xyz --gfn2 --hess
          hostname                   : swaroop
          coordinate file            : struc.xyz
          omp threads                :                     1

   ID    Z sym.   atoms
    1    8 O      1, 23, 31, 39, 47
    2    6 C      2, 5, 9, 13, 17, 22, 30, 38, 46
    3    1 H      3, 4, 6, 7, 10-12, 14-16, 18-21, 25, 26, 28, 29, 33, 34,
                  36, 37, 41, 42, 44, 45, 49, 50, 52, 53
    4    7 N      8, 24, 27, 32, 35, 40, 43, 48, 51

molecular fragmentation (1/2 indicates fragments):
11111111111111111111122222222222222222222222222222222
# atoms in fragment 1/2:    21    32
 fragment masses (1/2) :      104.17      240.22
CMA distance (Bohr)    :   6.724
constraining FC (au)   :  0.0500

           -------------------------------------------------
          |                 G F N 2 - x T B                 |
           -------------------------------------------------

        Reference                      10.1021/acs.jctc.8b01176
      * Hamiltonian:
        H0-scaling (s, p, d)           1.850000    2.230000    2.230000
        zeta-weighting                 0.500000
      * Dispersion:
        s8                             2.700000
        a1                             0.520000
        a2                             5.000000
        s9                             5.000000
      * Repulsion:
        kExp                           1.500000    1.000000
        rExp                           1.000000
      * Coulomb:
        alpha                          2.000000
        third order                    shell-resolved
        anisotropic                    true
        a3                             3.000000
        a5                             4.000000
        cn-shift                       1.200000
        cn-exp                         4.000000
        max-rad                        5.000000


          ...................................................
          :                      SETUP                      :
          :.................................................:
          :  # basis functions                 122          :
          :  # atomic orbitals                 122          :
          :  # shells                           76          :
          :  # electrons                       140          :
          :  max. iterations                   250          :
          :  Hamiltonian                  GFN2-xTB          :
          :  restarted?                      false          :
          :  GBSA solvation                  false          :
          :  PC potential                    false          :
          :  electronic temp.          300.0000000     K    :
          :  accuracy                    1.0000000          :
          :  -> integral cutoff          0.2500000E+02      :
          :  -> integral neglect         0.1000000E-07      :
          :  -> SCF convergence          0.1000000E-05 Eh   :
          :  -> wf. convergence          0.1000000E-03 e    :
          :  Broyden damping             0.4000000          :
          ...................................................

 iter      E             dE          RMSdq      gap      omega  full diag
   1    -81.5563143 -0.815563E+02  0.429E+00    5.13       0.0  T
   2    -81.8350356 -0.278721E+00  0.233E+00    6.02       1.0  T
   3    -81.8407920 -0.575647E-02  0.113E+00    5.87       1.0  T
   4    -81.8422622 -0.147019E-02  0.240E-01    6.00       1.0  T
   5    -81.8431603 -0.898039E-03  0.904E-02    5.94       1.0  T
   6    -81.8431847 -0.244148E-04  0.267E-02    5.95       1.0  T
   7    -81.8431887 -0.405630E-05  0.747E-03    5.94       1.8  T
   8    -81.8431890 -0.257773E-06  0.265E-03    5.94       5.2  T
   9    -81.8431890 -0.197213E-07  0.917E-04    5.94      15.0  T
  10    -81.8431890 -0.534024E-08  0.184E-04    5.94      74.7  T

   *** convergence criteria satisfied after 10 iterations ***

         #    Occupation            Energy/Eh            Energy/eV
      -------------------------------------------------------------
         1        2.0000           -0.7997113             -21.7613
       ...           ...                  ...                  ...
        64        2.0000           -0.4964951             -13.5103
        65        2.0000           -0.4943286             -13.4514
        66        2.0000           -0.4915065             -13.3746
        67        2.0000           -0.4895635             -13.3217
        68        2.0000           -0.4883093             -13.2876
        69        2.0000           -0.4873592             -13.2617
        70        2.0000           -0.4870482             -13.2533 (HOMO)
        71                         -0.2687093              -7.3120 (LUMO)
        72                         -0.2652183              -7.2170
        73                         -0.2633687              -7.1666
        74                         -0.2593610              -7.0576
        75                         -0.1571626              -4.2766
       ...                                ...                  ...
       122                          0.5647197              15.3668
      -------------------------------------------------------------
                  HL-Gap            0.2183389 Eh            5.9413 eV
             Fermi-level           -0.3778787 Eh          -10.2826 eV

 SCC (total)                   0 d,  0 h,  0 min,  0.090 sec
 SCC setup                      ...        0 min,  0.000 sec (  0.322%)
 Dispersion                     ...        0 min,  0.001 sec (  0.656%)
 classical contributions        ...        0 min,  0.000 sec (  0.202%)
 integral evaluation            ...        0 min,  0.008 sec (  9.183%)
 iterations                     ...        0 min,  0.052 sec ( 57.575%)
 molecular gradient             ...        0 min,  0.028 sec ( 31.759%)
 printout                       ...        0 min,  0.000 sec (  0.289%)

         :::::::::::::::::::::::::::::::::::::::::::::::::::::
         ::                     SUMMARY                     ::
         :::::::::::::::::::::::::::::::::::::::::::::::::::::
         :: total energy             -80.931813705845 Eh    ::
         :: gradient norm              0.000173860546 Eh/a0 ::
         :: HOMO-LUMO gap              5.941303820373 eV    ::
         ::.................................................::
         :: SCC energy               -81.843189019910 Eh    ::
         :: -> isotropic ES            0.293036742337 Eh    ::
         :: -> anisotropic ES         -0.028824896877 Eh    ::
         :: -> anisotropic XC          0.020252091395 Eh    ::
         :: -> dispersion             -0.045277785787 Eh    ::
         :: repulsion energy           0.909533553959 Eh    ::
         :: add. restraining           0.000000000000 Eh    ::
         :: total charge               1.000000000000 e     ::
         :::::::::::::::::::::::::::::::::::::::::::::::::::::

           ------------------------------------------------- 
          |                Numerical Hessian                |
           ------------------------------------------------- 
step length          :   0.00500
SCC accuracy         :   0.30000
Hessian scale factor :   1.00000
frozen atoms in %    :   0.00000    0
RMS gradient         :   0.00017
estimated CPU  time      0.24 min
estimated wall time      0.24 min

writing file <hessian>.

 projected vibrational frequencies (cm⁻¹)
eigval :       -0.00    -0.00    -0.00    -0.00     0.00     0.00
eigval :       15.13    18.84    26.00    29.01    39.73    40.68
eigval :       42.69    47.97    53.82    57.47    58.49    67.27
eigval :       72.08    81.63    86.47    97.72   103.16   112.88
eigval :      125.89   140.65   151.50   159.91   175.76   189.81
eigval :      194.82   208.54   223.69   238.87   260.85   265.41
eigval :      278.22   308.28   316.52   339.56   368.15   376.19
eigval :      381.85   393.09   415.83   419.46   447.45   456.15
eigval :      459.20   465.96   468.93   472.33   480.14   481.66
eigval :      484.02   508.53   518.83   536.64   552.02   555.16
eigval :      568.49   580.68   645.06   664.08   669.73   675.99
eigval :      686.09   692.58   727.60   757.12   772.77   803.94
eigval :      887.46   928.93   959.16   963.74   967.36   991.76
eigval :     1002.05  1003.23  1014.22  1020.15  1021.48  1027.12
eigval :     1036.87  1043.03  1054.23  1085.17  1088.53  1093.39
eigval :     1094.77  1104.34  1122.67  1128.51  1192.93  1207.19
eigval :     1247.33  1258.63  1275.01  1311.59  1346.35  1351.04
eigval :     1359.95  1364.59  1371.13  1391.30  1399.82  1409.07
eigval :     1417.81  1431.63  1443.37  1445.17  1450.57  1453.06
eigval :     1454.65  1460.51  1464.49  1467.26  1471.89  1479.48
eigval :     1493.34  1499.41  1502.41  1512.47  1534.91  1634.94
eigval :     1684.78  1705.47  1715.17  2894.73  2945.74  2987.98
eigval :     3008.64  3019.39  3035.53  3038.42  3040.70  3043.44
eigval :     3044.77  3052.14  3061.46  3067.28  3147.66  3167.60
eigval :     3215.20  3267.09  3369.13  3497.15  3497.97  3500.17
eigval :     3510.51  3532.69  3533.69  3537.99  3538.46  3561.76
eigval :     3563.41  3567.80  3585.48
           -------------------------------------------------
          |                Property Printout                |
           -------------------------------------------------

    * Orbital Energies and Occupations

         #    Occupation            Energy/Eh            Energy/eV
      -------------------------------------------------------------
         1        2.0000           -0.7997110             -21.7612
       ...           ...                  ...                  ...
        58        2.0000           -0.5149227             -14.0118
        59        2.0000           -0.5031481             -13.6914
        60        2.0000           -0.5022144             -13.6659
        61        2.0000           -0.5009092             -13.6304
        62        2.0000           -0.5003345             -13.6148
        63        2.0000           -0.4971046             -13.5269
        64        2.0000           -0.4964956             -13.5103
        65        2.0000           -0.4943293             -13.4514
        66        2.0000           -0.4915071             -13.3746
        67        2.0000           -0.4895659             -13.3218
        68        2.0000           -0.4883106             -13.2876
        69        2.0000           -0.4873609             -13.2618
        70        2.0000           -0.4870484             -13.2533 (HOMO)
        71                         -0.2687118              -7.3120 (LUMO)
        72                         -0.2652189              -7.2170
        73                         -0.2633691              -7.1666
        74                         -0.2593638              -7.0576
        75                         -0.1571621              -4.2766
        76                         -0.1020898              -2.7780
        77                         -0.0923533              -2.5131
        78                         -0.0861810              -2.3451
        79                         -0.0811565              -2.2084
        80                         -0.0764215              -2.0795
        81                         -0.0661490              -1.8000
       ...                                ...                  ...
       122                          0.5647183              15.3668
      -------------------------------------------------------------
                  HL-Gap            0.2183367 Eh            5.9412 eV
             Fermi-level           -0.3778801 Eh          -10.2826 eV

     #   Z          covCN         q      C6AA      α(0)
     1   8 O        1.655    -0.443    21.698     6.288
     2   6 C        3.672     0.072    19.601     6.346
     3   1 H        0.923     0.046     2.371     2.408
     4   1 H        0.924     0.055     2.253     2.348
     5   6 C        3.767    -0.066    21.805     6.655
     6   1 H        0.924     0.124     1.582     1.967
     7   1 H        0.924     0.114     1.659     2.014
     8   7 N        3.623     0.161    18.524     6.392
     9   6 C        3.722    -0.107    22.671     6.800
    10   1 H        0.925     0.098     1.806     2.102
    11   1 H        0.925     0.081     1.972     2.196
    12   1 H        0.925     0.121     1.609     1.984
    13   6 C        3.733    -0.126    23.019     6.848
    14   1 H        0.925     0.118     1.626     1.994
    15   1 H        0.924     0.127     1.558     1.952
    16   1 H        0.925     0.077     2.009     2.216
    17   6 C        3.724    -0.106    22.643     6.795
    18   1 H        0.925     0.101     1.773     2.082
    19   1 H        0.925     0.082     1.955     2.187
    20   1 H        0.925     0.120     1.610     1.984
    21   1 H        0.805     0.302     0.714     1.327
    22   6 C        2.675     0.341    21.199     7.534
    23   8 O        0.860    -0.515    24.122     6.585
    24   7 N        2.644    -0.287    27.417     7.777
    25   1 H        0.860     0.203     1.091     1.637
    26   1 H        0.861     0.184     1.192     1.710
    27   7 N        2.642    -0.330    28.487     7.927
    28   1 H        0.860     0.172     1.258     1.757
    29   1 H        0.859     0.239     0.927     1.508
    30   6 C        2.675     0.339    21.244     7.542
    31   8 O        0.861    -0.547    24.849     6.683
    32   7 N        2.644    -0.306    27.873     7.841
    33   1 H        0.860     0.240     0.925     1.507
    34   1 H        0.861     0.177     1.232     1.739
    35   7 N        2.644    -0.305    27.849     7.838
    36   1 H        0.861     0.176     1.235     1.741
    37   1 H        0.859     0.245     0.904     1.490
    38   6 C        2.675     0.342    21.190     7.533
    39   8 O        0.861    -0.525    24.336     6.614
    40   7 N        2.644    -0.308    27.941     7.851
    41   1 H        0.859     0.244     0.907     1.492
    42   1 H        0.861     0.177     1.232     1.738
    43   7 N        2.645    -0.290    27.490     7.787
    44   1 H        0.861     0.183     1.196     1.713
    45   1 H        0.860     0.201     1.103     1.645
    46   6 C        2.675     0.343    21.181     7.531
    47   8 O        0.860    -0.537    24.620     6.653
    48   7 N        2.646    -0.298    27.674     7.813
    49   1 H        0.860     0.193     1.143     1.675
    50   1 H        0.860     0.181     1.209     1.722
    51   7 N        2.645    -0.300    27.731     7.821
    52   1 H        0.861     0.179     1.220     1.730
    53   1 H        0.860     0.238     0.932     1.512

 Mol. C6AA /au·bohr⁶  :      21787.367988
 Mol. C8AA /au·bohr⁸  :     454292.349886
 Mol. α(0) /au        :        220.528578


Wiberg/Mayer (AO) data.
largest (>0.10) Wiberg bond orders for each atom

 ---------------------------------------------------------------------------
     #   Z sym  total        # sym  WBO       # sym  WBO       # sym  WBO
 ---------------------------------------------------------------------------
     1   8 O    1.957 --     2 C    0.996    21 H    0.893
     2   6 C    3.957 --     5 C    1.005     1 O    0.996     4 H    0.968
                             3 H    0.966
     3   1 H    0.998 --     2 C    0.966
     4   1 H    0.997 --     2 C    0.968
     5   6 C    3.927 --     2 C    1.005     7 H    0.955     6 H    0.947
                             8 N    0.935
     6   1 H    0.985 --     5 C    0.947
     7   1 H    0.987 --     5 C    0.955
     8   7 N    3.824 --     9 C    0.961    17 C    0.960    13 C    0.952
                             5 C    0.935
     9   6 C    3.928 --    11 H    0.978    10 H    0.971    12 H    0.964
                             8 N    0.961
    10   1 H    0.990 --     9 C    0.971
    11   1 H    0.993 --     9 C    0.978
    12   1 H    0.985 --     9 C    0.964
    13   6 C    3.911 --    16 H    0.979    15 H    0.955    14 H    0.955
                             8 N    0.952
    14   1 H    0.986 --    13 C    0.955
    15   1 H    0.984 --    13 C    0.955
    16   1 H    0.994 --    13 C    0.979
    17   6 C    3.927 --    19 H    0.978    18 H    0.973    20 H    0.965
                             8 N    0.960
    18   1 H    0.990 --    17 C    0.973
    19   1 H    0.993 --    17 C    0.978
    20   1 H    0.986 --    17 C    0.965
    21   1 H    0.908 --     1 O    0.893
    22   6 C    3.959 --    23 O    1.518    24 N    1.217    27 N    1.213
    23   8 O    1.922 --    22 C    1.518    24 N    0.140    27 N    0.138
    24   7 N    3.334 --    22 C    1.217    26 H    0.947    25 H    0.942
                            23 O    0.140
    25   1 H    0.959 --    24 N    0.942
    26   1 H    0.966 --    24 N    0.947
    27   7 N    3.292 --    22 C    1.213    28 H    0.950    29 H    0.868
                            23 O    0.138
    28   1 H    0.970 --    27 N    0.950
    29   1 H    0.943 --    27 N    0.868
    30   6 C    3.960 --    31 O    1.428    35 N    1.265    32 N    1.254
    31   8 O    1.910 --    30 C    1.428    35 N    0.129    32 N    0.127
    32   7 N    3.340 --    30 C    1.254    34 H    0.949    33 H    0.874
                            31 O    0.127
    33   1 H    0.942 --    32 N    0.874
    34   1 H    0.968 --    32 N    0.949
    35   7 N    3.346 --    30 C    1.265    36 H    0.949    37 H    0.865
                            31 O    0.129
    36   1 H    0.968 --    35 N    0.949
    37   1 H    0.940 --    35 N    0.865
    38   6 C    3.960 --    39 O    1.484    40 N    1.258    43 N    1.206
    39   8 O    1.920 --    38 C    1.484    40 N    0.144    43 N    0.129
    40   7 N    3.343 --    38 C    1.258    42 H    0.949    41 H    0.866
                            39 O    0.144
    41   1 H    0.940 --    40 N    0.866
    42   1 H    0.968 --    40 N    0.949
    43   7 N    3.319 --    38 C    1.206    44 H    0.947    45 H    0.943
                            39 O    0.129
    44   1 H    0.966 --    43 N    0.947
    45   1 H    0.960 --    43 N    0.943
    46   6 C    3.959 --    47 O    1.519    51 N    1.244    48 N    1.188
    47   8 O    1.880 --    46 C    1.519    51 N    0.149    48 N    0.135
    48   7 N    3.303 --    46 C    1.188    50 H    0.948    49 H    0.946
                            47 O    0.135
    49   1 H    0.963 --    48 N    0.946
    50   1 H    0.967 --    48 N    0.948
    51   7 N    3.341 --    46 C    1.244    52 H    0.949    53 H    0.893
                            47 O    0.149
    52   1 H    0.968 --    51 N    0.949
    53   1 H    0.943 --    51 N    0.893
 ---------------------------------------------------------------------------

Topologies differ in total number of bonds
Writing topology from bond orders to xtbtopo.mol

molecular dipole:
                 x           y           z       tot (Debye)
 q only:       -0.413      -1.563      -0.278
   full:       -0.400      -1.054      -0.404       3.044
molecular quadrupole (traceless):
                xx          xy          yy          xz          yz          zz
 q only:       10.640     -18.850     -12.682      -0.696      -5.457       2.043
  q+dip:       16.441     -22.998     -21.423      -1.247      -5.581       4.982
   full:       15.770     -22.684     -20.566      -1.370      -5.890       4.796

           -------------------------------------------------
          |               Frequency Printout                |
           -------------------------------------------------
 projected vibrational frequencies (cm⁻¹)
eigval :       -0.00    -0.00    -0.00    -0.00     0.00     0.00
eigval :       15.13    18.84    26.00    29.01    39.73    40.68
eigval :       42.69    47.97    53.82    57.47    58.49    67.27
eigval :       72.08    81.63    86.47    97.72   103.16   112.88
eigval :      125.89   140.65   151.50   159.91   175.76   189.81
eigval :      194.82   208.54   223.69   238.87   260.85   265.41
eigval :      278.22   308.28   316.52   339.56   368.15   376.19
eigval :      381.85   393.09   415.83   419.46   447.45   456.15
eigval :      459.20   465.96   468.93   472.33   480.14   481.66
eigval :      484.02   508.53   518.83   536.64   552.02   555.16
eigval :      568.49   580.68   645.06   664.08   669.73   675.99
eigval :      686.09   692.58   727.60   757.12   772.77   803.94
eigval :      887.46   928.93   959.16   963.74   967.36   991.76
eigval :     1002.05  1003.23  1014.22  1020.15  1021.48  1027.12
eigval :     1036.87  1043.03  1054.23  1085.17  1088.53  1093.39
eigval :     1094.77  1104.34  1122.67  1128.51  1192.93  1207.19
eigval :     1247.33  1258.63  1275.01  1311.59  1346.35  1351.04
eigval :     1359.95  1364.59  1371.13  1391.30  1399.82  1409.07
eigval :     1417.81  1431.63  1443.37  1445.17  1450.57  1453.06
eigval :     1454.65  1460.51  1464.49  1467.26  1471.89  1479.48
eigval :     1493.34  1499.41  1502.41  1512.47  1534.91  1634.94
eigval :     1684.78  1705.47  1715.17  2894.73  2945.74  2987.98
eigval :     3008.64  3019.39  3035.53  3038.42  3040.70  3043.44
eigval :     3044.77  3052.14  3061.46  3067.28  3147.66  3167.60
eigval :     3215.20  3267.09  3369.13  3497.15  3497.97  3500.17
eigval :     3510.51  3532.69  3533.69  3537.99  3538.46  3561.76
eigval :     3563.41  3567.80  3585.48
 reduced masses (amu)
   1: 12.71   2: 12.45   3: 12.47   4: 12.49   5: 12.64   6: 12.69   7: 12.42   8: 12.32
   9: 12.09  10: 12.48  11: 12.30  12: 12.01  13: 12.85  14: 12.67  15: 12.63  16: 12.92
  17: 12.19  18: 12.91  19: 11.81  20: 12.48  21: 13.66  22: 12.53  23: 11.88  24: 12.40
  25: 11.83  26: 12.58  27: 13.24  28: 13.11  29: 12.87  30: 13.28  31:  8.94  32:  3.57
  33: 10.48  34:  4.41  35:  2.82  36:  2.24  37:  8.80  38:  2.63  39:  7.91  40:  2.31
  41:  5.75  42:  3.80  43:  2.54  44:  2.77  45:  3.18  46:  8.58  47:  4.15  48:  6.83
  49:  3.73  50:  8.15  51:  6.30  52:  7.05  53:  5.17  54:  2.51  55:  8.24  56:  3.15
  57:  8.93  58: 11.26  59: 11.09  60: 11.53  61:  8.69  62: 12.34  63:  4.82  64:  8.25
  65: 11.04  66: 12.01  67:  8.38  68:  5.02  69:  1.90  70:  2.02  71:  9.06  72:  3.07
  73:  5.88  74:  8.94  75:  4.92  76:  5.62  77:  4.87  78:  4.25  79:  8.13  80:  8.36
  81:  7.22  82:  9.13  83:  7.56  84:  9.91  85:  3.10  86: 10.05  87:  4.88  88:  9.33
  89:  8.58  90:  8.10  91:  6.60  92:  6.80  93:  6.03  94:  7.66  95:  3.88  96:  2.51
  97:  7.49  98:  3.89  99:  8.33 100:  6.29 101:  3.89 102:  5.10 103:  5.94 104:  4.96
 105:  4.62 106:  3.88 107:  2.73 108:  2.62 109:  2.09 110:  2.50 111:  1.78 112:  3.15
 113:  3.16 114:  2.61 115:  2.15 116:  2.31 117:  2.84 118:  1.75 119:  1.74 120:  1.72
 121:  1.77 122:  8.11 123:  7.99 124:  9.05 125: 10.16 126: 12.02 127: 12.65 128: 12.68
 129: 12.76 130:  1.84 131:  1.60 132:  1.71 133:  1.84 134:  1.80 135:  1.58 136:  1.85
 137:  1.55 138:  1.83 139:  1.55 140:  1.89 141:  1.77 142:  1.75 143:  1.80 144:  1.82
 145:  1.77 146:  1.78 147:  1.71 148:  1.46 149:  1.45 150:  1.45 151:  1.88 152:  1.91
 153:  1.95 154:  1.90 155:  1.90 156:  2.17 157:  2.18 158:  2.19 159:  1.88
 IR intensities (km·mol⁻¹)
   1:  1.30   2:  0.86   3:  1.64   4:  2.03   5:  2.28   6:  0.72   7:  0.12   8:  1.82
   9:  0.52  10:  0.94  11:  0.36  12:  0.63  13:  5.79  14:  0.33  15:  0.08  16:  3.15
  17:  7.12  18:  3.28  19:  0.87  20:  3.82  21:  0.77  22:  0.75  23: 10.55  24: 23.39
  25: 13.30  26:  4.30  27: 33.84  28:  1.56  29:  8.66  30:  1.93  31:  9.05  32:262.95
  33: 79.56  34:101.65  35: 10.81  36: 89.03  37:  9.69  38:128.96  39:  4.83  40:  2.32
  41:  0.25  42:  1.87  43: 39.65  44: 78.19  45:447.57  46: 11.43  47:249.07  48:  5.63
  49: 12.01  50: 64.59  51: 31.46  52: 20.99  53: 24.50  54:126.72  55: 21.28  56: 38.06
  57: 47.23  58: 24.85  59: 22.42  60:  8.08  61: 13.85  62: 58.01  63: 23.06  64: 24.28
  65: 22.00  66: 51.90  67:  0.90  68:169.27  69: 18.88  70:161.84  71:  4.93  72:657.50
  73:  7.45  74:  5.91  75:  0.87  76:  4.75  77:  4.75  78:  4.06  79:  9.81  80: 28.87
  81: 15.72  82:  6.30  83: 15.57  84:  5.61  85:  0.43  86:  5.26  87:  2.29  88:  1.21
  89:  1.67  90:  0.35  91: 40.32  92:  5.03  93: 11.03  94: 32.22  95:  5.81  96: 41.59
  97: 35.41  98: 24.33  99:  4.53 100:  2.71 101: 10.10 102:319.40 103: 88.68 104: 14.25
 105: 16.70 106:  2.23 107: 23.52 108:  8.03 109:  2.58 110: 15.68 111:  7.38 112: 18.92
 113:  9.50 114:  8.08 115: 13.12 116: 18.14 117:  4.79 118:  9.66 119: 20.12 120: 36.54
 121: 21.74 122:619.84 123:610.48 124:233.63 125:559.46 126:222.16 127:265.02 128:******
 129:****** 130: 44.17 131: 19.59 132: 32.15 133:  2.69 134: 51.82 135: 19.75 136:  7.90
 137:  4.86 138: 23.45 139: 24.18 140: 13.76 141:  1.88 142:  5.29 143:734.21 144:220.20
 145:****** 146:708.22 147:633.53 148: 13.22 149: 17.74 150: 22.16 151: 11.73 152:  3.21
 153: 18.71 154: 11.08 155: 32.08 156:  7.49 157: 15.37 158: 15.19 159: 29.30
 Raman intensities (amu)
Molecule has no symmetry elements
It seems to be the C1 point group
   1:  0.00   2:  0.00   3:  0.00   4:  0.00   5:  0.00   6:  0.00   7:  0.00   8:  0.00
   9:  0.00  10:  0.00  11:  0.00  12:  0.00  13:  0.00  14:  0.00  15:  0.00  16:  0.00
  17:  0.00  18:  0.00  19:  0.00  20:  0.00  21:  0.00  22:  0.00  23:  0.00  24:  0.00
  25:  0.00  26:  0.00  27:  0.00  28:  0.00  29:  0.00  30:  0.00  31:  0.00  32:  0.00
  33:  0.00  34:  0.00  35:  0.00  36:  0.00  37:  0.00  38:  0.00  39:  0.00  40:  0.00
  41:  0.00  42:  0.00  43:  0.00  44:  0.00  45:  0.00  46:  0.00  47:  0.00  48:  0.00
  49:  0.00  50:  0.00  51:  0.00  52:  0.00  53:  0.00  54:  0.00  55:  0.00  56:  0.00
  57:  0.00  58:  0.00  59:  0.00  60:  0.00  61:  0.00  62:  0.00  63:  0.00  64:  0.00
  65:  0.00  66:  0.00  67:  0.00  68:  0.00  69:  0.00  70:  0.00  71:  0.00  72:  0.00
  73:  0.00  74:  0.00  75:  0.00  76:  0.00  77:  0.00  78:  0.00  79:  0.00  80:  0.00
  81:  0.00  82:  0.00  83:  0.00  84:  0.00  85:  0.00  86:  0.00  87:  0.00  88:  0.00
  89:  0.00  90:  0.00  91:  0.00  92:  0.00  93:  0.00  94:  0.00  95:  0.00  96:  0.00
  97:  0.00  98:  0.00  99:  0.00 100:  0.00 101:  0.00 102:  0.00 103:  0.00 104:  0.00
 105:  0.00 106:  0.00 107:  0.00 108:  0.00 109:  0.00 110:  0.00 111:  0.00 112:  0.00
 113:  0.00 114:  0.00 115:  0.00 116:  0.00 117:  0.00 118:  0.00 119:  0.00 120:  0.00
 121:  0.00 122:  0.00 123:  0.00 124:  0.00 125:  0.00 126:  0.00 127:  0.00 128:  0.00
 129:  0.00 130:  0.00 131:  0.00 132:  0.00 133:  0.00 134:  0.00 135:  0.00 136:  0.00
 137:  0.00 138:  0.00 139:  0.00 140:  0.00 141:  0.00 142:  0.00 143:  0.00 144:  0.00
 145:  0.00 146:  0.00 147:  0.00 148:  0.00 149:  0.00 150:  0.00 151:  0.00 152:  0.00
 153:  0.00 154:  0.00 155:  0.00 156:  0.00 157:  0.00 158:  0.00 159:  0.00
 output can be read by thermo (or use thermo option).
 writing <g98.out> molden fake output.
 recommended (thermochemical) frequency scaling factor: 1.0
           -------------------------------------------------
          |             Thermodynamic Functions             |
           -------------------------------------------------

c1  symmetry found (for desy threshold:  0.10E+00) used in thermo

          ...................................................
          :                      SETUP                      :
          :.................................................:
          :  # frequencies                         153      :
          :  # imaginary freq.                       0      :
          :  linear?                             false      :
          :  only rotor calc.                    false      :
          :  symmetry                               c1      :
          :  rotational number                       1      :
          :  scaling factor                  1.0000000      :
          :  rotor cutoff                   50.0000000 cm⁻¹ :
          :  imag. cutoff                  -20.0000000 cm⁻¹ :
          :.................................................:

    mode    ω/cm⁻¹     T·S(HO)/kcal·mol⁻¹    T·S(FR)/kcal·mol⁻¹   T·S(vib)
   ------------------------------------------------------------------------
       1     15.13    -2.14325 (  0.83%)    -1.41057 ( 99.17%)    -1.41666
       2     18.84    -2.01327 (  1.98%)    -1.34556 ( 98.02%)    -1.35876
       3     26.00    -1.82264 (  6.82%)    -1.25018 ( 93.18%)    -1.28920
       4     29.01    -1.75790 ( 10.18%)    -1.21777 ( 89.82%)    -1.27274
       5     39.73    -1.57193 ( 28.51%)    -1.12459 ( 71.49%)    -1.25213
       6     40.68    -1.55809 ( 30.46%)    -1.11765 ( 69.54%)    -1.25180
       7     42.69    -1.52956 ( 34.70%)    -1.10334 ( 65.30%)    -1.25124
       8     47.97    -1.46078 ( 45.86%)    -1.06881 ( 54.14%)    -1.24856
       9     53.82    -1.39287 ( 57.32%)    -1.03469 ( 42.68%)    -1.23998
      10     57.47    -1.35431 ( 63.57%)    -1.01530 ( 36.43%)    -1.23080
      11     58.49    -1.34394 ( 65.18%)    -1.01008 ( 34.82%)    -1.22770
      12     67.27    -1.26169 ( 76.61%)    -0.96864 ( 23.39%)    -1.19316
      13     72.08    -1.22113 ( 81.20%)    -0.94817 ( 18.80%)    -1.16982
      14     81.63    -1.14827 ( 87.66%)    -0.91133 ( 12.34%)    -1.11903
      15     86.47    -1.11457 ( 89.95%)    -0.89424 ( 10.05%)    -1.09242
      16     97.72    -1.04334 ( 93.58%)    -0.85804 (  6.42%)    -1.03145
      17    103.16    -1.01182 ( 94.77%)    -0.84197 (  5.23%)    -1.00294
      18    112.88    -0.95966 ( 96.29%)    -0.81530 (  3.71%)    -0.95431
      19    125.89    -0.89682 ( 97.57%)    -0.78300 (  2.43%)    -0.89406
      20    140.65    -0.83334 ( 98.43%)    -0.75016 (  1.57%)    -0.83204
      21    151.50    -0.79110 ( 98.83%)    -0.72815 (  1.17%)    -0.79036
      22    159.91    -0.76052 ( 99.05%)    -0.71212 (  0.95%)    -0.76006
      23    175.76    -0.70750 ( 99.35%)    -0.68413 (  0.65%)    -0.70735
      24    189.81    -0.66477 ( 99.52%)    -0.66135 (  0.48%)    -0.66475
      25    194.82    -0.65042 ( 99.57%)    -0.65364 (  0.43%)    -0.65043
      26    208.54    -0.61312 ( 99.67%)    -0.63348 (  0.33%)    -0.61319
      27    223.69    -0.57514 ( 99.75%)    -0.61270 (  0.25%)    -0.57524
      28    238.87    -0.54003 ( 99.81%)    -0.59325 (  0.19%)    -0.54013
      29    260.85    -0.49375 ( 99.87%)    -0.56717 (  0.13%)    -0.49385
      30    265.41    -0.48476 ( 99.87%)    -0.56204 (  0.13%)    -0.48486
      31    278.22    -0.46051 ( 99.90%)    -0.54808 (  0.10%)    -0.46061
   ------------------------------------------------------------------------

   temp. (K)  partition function   enthalpy   heat capacity  entropy
                                   cal/mol     cal/K/mol   cal/K/mol   J/K/mol
 298.15  VIB  0.350E+17            19351.041    104.162    126.818
         ROT  0.119E+08              888.752      2.981     35.354
         INT  0.415E+24            20239.793    107.143    162.172
         TR   0.618E+28             1481.254      4.968     43.384
         TOT                       21721.0474   112.1111   205.5564   860.0478

       T/K    H(0)-H(T)+PV         H(T)/Eh          T*S/Eh         G(T)/Eh
   ------------------------------------------------------------------------
    298.15    0.346147E-01    0.473836E+00    0.976665E-01    0.376170E+00
   ------------------------------------------------------------------------

         :::::::::::::::::::::::::::::::::::::::::::::::::::::
         ::                  THERMODYNAMIC                  ::
         :::::::::::::::::::::::::::::::::::::::::::::::::::::
         :: total free energy         -80.555644008558 Eh   ::
         ::.................................................::
         :: total energy              -80.931813706137 Eh   ::
         :: zero point energy           0.439221460240 Eh   ::
         :: G(RRHO) w/o ZPVE           -0.063051762660 Eh   ::
         :: G(RRHO) contrib.            0.376169697579 Eh   ::
         :::::::::::::::::::::::::::::::::::::::::::::::::::::

           -------------------------------------------------
          | TOTAL ENERGY              -80.931813706137 Eh   |
          | TOTAL ENTHALPY            -80.457977553606 Eh   |
          | TOTAL FREE ENERGY         -80.555644008558 Eh   |
          | GRADIENT NORM               0.000173896578 Eh/α |
          | HOMO-LUMO GAP               5.941243296466 eV   |
           -------------------------------------------------

------------------------------------------------------------------------
 * finished run on 2024/01/10 at 18:34:51.562     
------------------------------------------------------------------------
 total:
 * wall-time:     0 d,  0 h,  0 min, 14.797 sec
 *  cpu-time:     0 d,  0 h,  0 min, 14.729 sec
 * ratio c/w:     0.995 speedup
 SCF:
 * wall-time:     0 d,  0 h,  0 min,  0.090 sec
 *  cpu-time:     0 d,  0 h,  0 min,  0.059 sec
 * ratio c/w:     0.661 speedup
 analytical hessian:
 * wall-time:     0 d,  0 h,  0 min, 14.681 sec
 *  cpu-time:     0 d,  0 h,  0 min, 14.643 sec
 * ratio c/w:     0.997 speedup

