 Entering Gaussian System
 *********************************************
 Gaussian 98:
 frequency output generated by the xtb code
 *********************************************
                         Standard orientation:
 --------------------------------------------------------------------
  Center     Atomic     Atomic              Coordinates (Angstroms)
  Number     Number      Type              X           Y           Z
 --------------------------------------------------------------------
    1          8             0        0.156686   -2.897025    1.025685
    2          6             0        1.436685   -2.705084    1.550415
    3          1             0        1.376758   -2.975537    2.608303
    4          1             0        2.156903   -3.390277    1.076256
    5          6             0        2.014680   -1.293868    1.364974
    6          1             0        2.070807   -1.066529    0.296089
    7          1             0        3.025142   -1.293681    1.779230
    8          7             0        1.256299   -0.177388    1.986013
    9          6             0       -0.043399   -0.012682    1.316277
   10          1             0        0.131138    0.136833    0.253997
   11          1             0       -0.536992    0.864945    1.732484
   12          1             0       -0.658076   -0.894832    1.469935
   13          6             0        2.023174    1.065473    1.786403
   14          1             0        2.196854    1.206369    0.721068
   15          1             0        2.975603    1.012523    2.309289
   16          1             0        1.438588    1.899094    2.173161
   17          6             0        1.030013   -0.370088    3.424411
   18          1             0        1.976147   -0.519004    3.941932
   19          1             0        0.385300   -1.229054    3.594006
   20          1             0        0.537895    0.519956    3.814797
   21          1             0        0.146391   -2.599521    0.086100
   22          6             0        0.601703   -2.953797   -2.332731
   23          8             0        0.150474   -2.098045   -1.569103
   24          7             0        1.185873   -2.627910   -3.501468
   25          1             0        1.432744   -1.653726   -3.648614
   26          1             0        1.645089   -3.324998   -4.059887
   27          7             0        0.528513   -4.270666   -2.030515
   28          1             0        0.807063   -4.983234   -2.680108
   29          1             0        0.020439   -4.549853   -1.208435
   30          6             0       -1.157727    3.552617    2.411359
   31          8             0       -0.522016    2.585518    2.812872
   32          7             0       -1.184844    4.720068    3.106729
   33          1             0       -0.788531    4.723875    4.030042
   34          1             0       -1.819400    5.460858    2.869413
   35          7             0       -1.876696    3.533910    1.265045
   36          1             0       -2.233506    4.394707    0.889527
   37          1             0       -1.760302    2.764504    0.611063
   38          6             0        1.390345    0.599412   -2.376501
   39          8             0        1.866726    0.427497   -1.267683
   40          7             0        2.084118    0.210226   -3.519823
   41          1             0        3.077348    0.099059   -3.373109
   42          1             0        1.854403    0.685246   -4.379887
   43          7             0        0.174537    1.116496   -2.598186
   44          1             0       -0.201744    1.168806   -3.527607
   45          1             0       -0.467256    1.283082   -1.821813
   46          6             0       -2.669591    0.452917   -0.627936
   47          8             0       -1.853281    1.373798   -0.671779
   48          7             0       -3.899929    0.636214   -0.093702
   49          1             0       -4.169174    1.564206    0.180760
   50          1             0       -4.610430   -0.071136   -0.135359
   51          7             0       -2.400933   -0.778521   -1.104064
   52          1             0       -3.048396   -1.531441   -0.955255
   53          1             0       -1.452811   -1.033487   -1.353326
 --------------------------------------------------------------------
     1 basis functions        1 primitive gaussians
     1 alpha electrons        1 beta electrons

 Harmonic frequencies (cm**-1), IR intensities (km*mol⁻¹),
 Raman scattering activities (A**4/amu), Raman depolarization ratios,
 reduced masses (AMU), force constants (mDyne/A) and normal coordinates:
                      1                      2                      3
                        a                      a                      a 
 Frequencies --    18.9660                25.8698                31.4946
 Red. masses --    12.2235                12.1414                12.1810
 Frc consts  --     0.0000                 0.0000                 0.0000
 IR Inten    --     1.4828                 0.8346                 5.2319
 Raman Activ --     0.0000                 0.0000                 0.0000
 Depolar     --     0.0000                 0.0000                 0.0000
 Atom AN      X      Y      Z        X      Y      Z        X      Y      Z
   1   8    -0.17   0.02  -0.09     0.13   0.03  -0.02    -0.23   0.10  -0.10
   2   6    -0.16  -0.05  -0.03     0.09   0.05   0.03    -0.19   0.00  -0.07
   3   1    -0.06  -0.02  -0.01     0.01   0.01   0.01    -0.07   0.00  -0.02
   4   1    -0.05  -0.02  -0.01     0.03   0.02   0.01    -0.07  -0.01  -0.02
   5   6    -0.10  -0.07   0.02     0.07   0.06   0.07    -0.10  -0.04  -0.05
   6   1    -0.02  -0.01   0.01     0.03   0.02   0.02    -0.02  -0.01  -0.02
   7   1    -0.03  -0.04   0.01     0.02   0.02   0.03    -0.03  -0.03  -0.01
   8   7    -0.06  -0.06   0.06     0.03   0.04   0.06    -0.03   0.01  -0.06
   9   6    -0.04   0.02   0.04     0.04   0.01   0.03    -0.01   0.09  -0.08
  10   1    -0.01   0.01   0.01     0.02   0.00   0.01     0.00   0.03  -0.02
  11   1    -0.00   0.01   0.02     0.00   0.00   0.00     0.01   0.03  -0.02
  12   1    -0.02   0.01   0.00     0.02  -0.00   0.00    -0.02   0.03  -0.03
  13   6    -0.00  -0.08   0.10     0.00   0.06   0.08     0.04  -0.03  -0.05
  14   1     0.00  -0.02   0.03     0.01   0.02   0.02     0.02  -0.01  -0.02
  15   1    -0.00  -0.04   0.03    -0.00   0.02   0.03     0.01  -0.02  -0.01
  16   1     0.01  -0.02   0.03    -0.01   0.01   0.02     0.02   0.00  -0.02
  17   6    -0.08  -0.09   0.04     0.00   0.03   0.05    -0.06   0.02  -0.06
  18   1    -0.03  -0.04   0.01    -0.00   0.02   0.02    -0.02  -0.01  -0.01
  19   1    -0.03  -0.02   0.00     0.01   0.00   0.01    -0.03   0.02  -0.02
  20   1    -0.01  -0.02   0.02    -0.01   0.00   0.01    -0.00   0.02  -0.02
  21   1    -0.03   0.00  -0.02     0.04   0.01  -0.01    -0.04   0.01  -0.03
  22   6     0.10   0.06  -0.08    -0.16   0.02  -0.15     0.10  -0.06  -0.02
  23   8     0.03   0.02  -0.09     0.06   0.03  -0.03    -0.03  -0.05  -0.14
  24   7     0.18   0.12  -0.03    -0.14   0.04  -0.13     0.19  -0.12   0.01
  25   1     0.04   0.04   0.00     0.02   0.00  -0.01     0.04  -0.03  -0.01
  26   1     0.06   0.04  -0.01    -0.09   0.00  -0.07     0.08  -0.03   0.03
  27   7     0.12   0.04  -0.15    -0.50   0.00  -0.33     0.19  -0.05   0.08
  28   1     0.05   0.02  -0.04    -0.17   0.00  -0.11     0.07  -0.02   0.03
  29   1     0.01  -0.00  -0.05    -0.13   0.00  -0.08     0.02  -0.01   0.01
  30   6     0.13   0.10  -0.15    -0.11   0.01  -0.08    -0.09   0.01   0.04
  31   8     0.06   0.10  -0.07    -0.13   0.03  -0.05     0.00   0.05  -0.03
  32   7     0.29   0.20  -0.31    -0.19   0.01  -0.09    -0.25  -0.06   0.16
  33   1     0.08   0.07  -0.09    -0.06   0.01  -0.02    -0.07  -0.02   0.04
  34   1     0.09   0.06  -0.10    -0.05  -0.00  -0.03    -0.08  -0.03   0.05
  35   7     0.10   0.04  -0.13    -0.07  -0.01  -0.12    -0.08   0.03   0.03
  36   1     0.04   0.01  -0.06    -0.02  -0.01  -0.04    -0.04   0.01   0.02
  37   1    -0.00  -0.01  -0.01    -0.00  -0.00  -0.03     0.01   0.03  -0.01
  38   6    -0.05   0.07   0.08     0.12  -0.04   0.06     0.01  -0.06  -0.08
  39   8    -0.08   0.07   0.10     0.11   0.02   0.09    -0.02  -0.05  -0.08
  40   7     0.01   0.17   0.09     0.17  -0.07   0.10     0.04  -0.08  -0.06
  41   1     0.00   0.06   0.03     0.04  -0.02   0.04     0.01  -0.02  -0.01
  42   1     0.00   0.05   0.03     0.05  -0.02   0.02     0.02  -0.03  -0.02
  43   7    -0.08   0.01   0.07     0.12  -0.08   0.01     0.01  -0.08  -0.13
  44   1    -0.01   0.00   0.01     0.04  -0.04  -0.00     0.01  -0.02  -0.04
  45   1    -0.03  -0.02   0.01     0.02  -0.02  -0.01     0.00  -0.00  -0.04
  46   6    -0.05  -0.16   0.12     0.09  -0.05   0.10     0.12   0.09   0.15
  47   8    -0.12  -0.13   0.05     0.08  -0.05  -0.04     0.09   0.13  -0.07
  48   7    -0.02  -0.24   0.24     0.15  -0.05   0.22     0.26   0.07   0.48
  49   1    -0.01  -0.07   0.06     0.04  -0.01   0.05     0.08   0.02   0.13
  50   1     0.00  -0.07   0.08     0.04  -0.02   0.09     0.07   0.01   0.17
  51   7    -0.02  -0.16   0.12     0.07  -0.08   0.16     0.05   0.09   0.12
  52   1     0.01  -0.05   0.05     0.03  -0.02   0.07     0.03   0.02   0.08
  53   1    -0.01  -0.03   0.01     0.01  -0.02   0.02    -0.00   0.03  -0.02
                      4                      5                      6
                        a                      a                      a 
 Frequencies --    39.7083                46.5185                52.0613
 Red. masses --    12.3963                12.3306                11.8266
 Frc consts  --     0.0000                 0.0000                 0.0000
 IR Inten    --     3.1605                 1.3012                 1.7805
 Raman Activ --     0.0000                 0.0000                 0.0000
 Depolar     --     0.0000                 0.0000                 0.0000
 Atom AN      X      Y      Z        X      Y      Z        X      Y      Z
   1   8     0.24  -0.20   0.02    -0.06  -0.09   0.09     0.02  -0.02   0.03
   2   6     0.22  -0.05  -0.05    -0.06  -0.11   0.13    -0.05   0.05   0.18
   3   1     0.09  -0.03  -0.02    -0.04  -0.01   0.04    -0.05   0.03   0.06
   4   1     0.08   0.01  -0.03    -0.02  -0.05   0.06     0.01   0.01   0.09
   5   6     0.05   0.02  -0.04     0.02  -0.16   0.08    -0.05   0.04   0.15
   6   1     0.01   0.01  -0.01     0.03  -0.07   0.02     0.00  -0.00   0.04
   7   1     0.01   0.04  -0.01    -0.00  -0.05   0.04    -0.02   0.02   0.06
   8   7    -0.08  -0.08  -0.02     0.05  -0.08  -0.03    -0.09   0.07   0.07
   9   6    -0.08  -0.18  -0.05     0.09  -0.06  -0.10    -0.08  -0.02   0.04
  10   1    -0.02  -0.05  -0.01     0.04  -0.06  -0.03    -0.02  -0.01   0.01
  11   1    -0.05  -0.06  -0.01     0.04   0.01  -0.07    -0.04  -0.01  -0.00
  12   1    -0.00  -0.07  -0.02     0.00   0.00  -0.01    -0.01  -0.01   0.02
  13   6    -0.19   0.00   0.03     0.12  -0.13  -0.08    -0.12   0.07  -0.02
  14   1    -0.05   0.01   0.01     0.05  -0.06  -0.02    -0.04   0.00  -0.01
  15   1    -0.06   0.02   0.01     0.03  -0.04  -0.01    -0.03   0.04  -0.01
  16   1    -0.08  -0.02   0.01     0.04  -0.02  -0.05    -0.04   0.02  -0.02
  17   6    -0.09  -0.15  -0.03    -0.03   0.04  -0.03    -0.10   0.18   0.08
  18   1    -0.03  -0.02  -0.00    -0.02   0.01   0.01    -0.03   0.07   0.03
  19   1    -0.00  -0.06  -0.02    -0.02   0.02   0.00    -0.02   0.05   0.04
  20   1    -0.06  -0.06  -0.00    -0.00   0.02  -0.04    -0.04   0.06  -0.00
  21   1     0.03  -0.03   0.01    -0.00  -0.01   0.03     0.03  -0.02   0.00
  22   6    -0.00   0.03   0.08    -0.05   0.12   0.06     0.02  -0.09  -0.14
  23   8    -0.06   0.01   0.09    -0.04   0.09   0.13     0.12  -0.17  -0.04
  24   7    -0.08   0.05   0.05    -0.29   0.17  -0.04    -0.33  -0.02  -0.32
  25   1    -0.04   0.02   0.01    -0.09   0.05  -0.02    -0.10  -0.00  -0.08
  26   1    -0.01   0.02   0.02    -0.07   0.06  -0.02    -0.09   0.01  -0.11
  27   7     0.14   0.03   0.13     0.15   0.12   0.09     0.26  -0.11  -0.15
  28   1     0.04   0.01   0.03     0.03   0.04   0.01     0.03  -0.02  -0.07
  29   1     0.05   0.00   0.04     0.07   0.02   0.04     0.12  -0.05  -0.02
  30   6    -0.04  -0.05  -0.12    -0.06  -0.01  -0.14     0.03   0.04   0.06
  31   8    -0.35  -0.23  -0.07     0.13   0.06  -0.31    -0.08  -0.02   0.09
  32   7     0.14  -0.06  -0.09    -0.11  -0.04  -0.11     0.11   0.04   0.08
  33   1    -0.01  -0.05  -0.01     0.01  -0.00  -0.05     0.01  -0.00   0.03
  34   1     0.09   0.02  -0.04    -0.06  -0.03   0.00     0.05   0.03   0.01
  35   7     0.14   0.16  -0.24    -0.27  -0.08  -0.03     0.10   0.12   0.03
  36   1     0.10   0.07  -0.07    -0.11  -0.03   0.01     0.04   0.04   0.01
  37   1     0.01   0.04  -0.06    -0.06  -0.01  -0.02     0.01   0.03   0.01
  38   6    -0.01   0.05  -0.02     0.11   0.04   0.02    -0.06  -0.04  -0.01
  39   8    -0.05   0.04  -0.01     0.19  -0.21  -0.05    -0.11  -0.16  -0.01
  40   7     0.01   0.04  -0.00    -0.00   0.14  -0.09    -0.11  -0.07  -0.02
  41   1     0.00   0.00   0.01    -0.00  -0.00  -0.05    -0.03  -0.06  -0.00
  42   1     0.01   0.01  -0.00    -0.00   0.08  -0.00    -0.01   0.01   0.00
  43   7     0.01   0.08  -0.06     0.17   0.23   0.17    -0.00   0.12   0.01
  44   1     0.01   0.03  -0.02     0.04   0.11   0.05     0.00   0.06   0.00
  45   1    -0.00   0.02  -0.02     0.05   0.03   0.05     0.00   0.04   0.00
  46   6     0.01   0.11   0.08    -0.01  -0.01   0.05     0.12  -0.01  -0.02
  47   8     0.03   0.11  -0.08     0.01  -0.03   0.05     0.04   0.08   0.03
  48   7     0.08   0.19   0.21     0.01   0.01   0.09     0.13  -0.18   0.04
  49   1     0.04   0.06   0.05     0.01   0.00   0.03     0.01  -0.06   0.02
  50   1     0.02   0.05   0.10    -0.00   0.01   0.03     0.05  -0.06  -0.01
  51   7    -0.05   0.08   0.17    -0.05  -0.01   0.04     0.22   0.05  -0.15
  52   1    -0.02   0.03   0.07    -0.01  -0.00   0.01     0.08  -0.00  -0.04
  53   1    -0.02   0.01   0.02    -0.01  -0.01   0.01     0.07   0.03  -0.04
                      7                      8                      9
                        a                      a                      a 
 Frequencies --    55.4739                58.8462                62.6886
 Red. masses --    12.3918                11.6827                12.3204
 Frc consts  --     0.0000                 0.0000                 0.0000
 IR Inten    --     2.3682                 0.5618                 1.9079
 Raman Activ --     0.0000                 0.0000                 0.0000
 Depolar     --     0.0000                 0.0000                 0.0000
 Atom AN      X      Y      Z        X      Y      Z        X      Y      Z
   1   8     0.07   0.08  -0.29    -0.00   0.07  -0.05    -0.02   0.08  -0.11
   2   6     0.04   0.04  -0.20    -0.05   0.05   0.07    -0.06   0.03   0.03
   3   1     0.01  -0.02  -0.07    -0.04   0.02   0.02    -0.05   0.01   0.01
   4   1     0.02   0.03  -0.07    -0.01   0.00   0.05    -0.01   0.00   0.03
   5   6     0.03   0.06  -0.04     0.00   0.02   0.07     0.00   0.01   0.06
   6   1     0.01   0.05  -0.00     0.04  -0.01   0.02     0.03   0.00   0.02
   7   1     0.01   0.01  -0.01    -0.01   0.01   0.06    -0.01  -0.01   0.04
   8   7     0.01  -0.01   0.08    -0.06   0.07  -0.09     0.01   0.05   0.00
   9   6    -0.03  -0.02   0.16     0.06   0.08  -0.29     0.04   0.05  -0.06
  10   1    -0.03   0.00   0.04     0.06   0.01  -0.08     0.02   0.01  -0.01
  11   1    -0.01  -0.01   0.06     0.01   0.03  -0.11     0.01   0.02  -0.03
  12   1    -0.00  -0.01   0.05    -0.00   0.03  -0.10     0.01   0.02  -0.02
  13   6    -0.05   0.04   0.10     0.02   0.03   0.00     0.04   0.02   0.00
  14   1    -0.03   0.02   0.03     0.04   0.01   0.01     0.02  -0.00   0.00
  15   1    -0.01   0.02   0.02    -0.01  -0.00   0.03     0.01   0.00   0.01
  16   1    -0.02  -0.00   0.04     0.00   0.02  -0.02     0.01   0.01  -0.01
  17   6     0.12  -0.11   0.08    -0.31   0.13  -0.11    -0.06   0.09  -0.00
  18   1     0.05  -0.03   0.00    -0.12   0.04   0.02    -0.03   0.03   0.01
  19   1     0.05  -0.04   0.02    -0.10   0.04  -0.06    -0.02   0.03  -0.00
  20   1     0.03  -0.05   0.05    -0.11   0.04  -0.07    -0.02   0.03  -0.02
  21   1     0.01   0.06  -0.06     0.02   0.04  -0.01     0.02   0.02  -0.03
  22   6    -0.03   0.09  -0.05    -0.00   0.12   0.08     0.05   0.04  -0.11
  23   8    -0.07   0.23  -0.23     0.15   0.27   0.04     0.04   0.04  -0.13
  24   7    -0.18  -0.10  -0.19    -0.03  -0.03   0.03    -0.08   0.04  -0.19
  25   1    -0.05  -0.03  -0.09     0.02  -0.02  -0.01    -0.03   0.01  -0.06
  26   1    -0.03  -0.05  -0.01    -0.04  -0.03   0.01    -0.01   0.01  -0.04
  27   7     0.16   0.16   0.26    -0.17   0.17   0.20     0.22   0.05  -0.04
  28   1     0.04   0.01   0.10    -0.06   0.02   0.08     0.05   0.01  -0.02
  29   1     0.07   0.08   0.10    -0.03   0.08   0.08     0.07   0.01  -0.01
  30   6    -0.05   0.04  -0.01     0.06  -0.11   0.05     0.03  -0.02   0.02
  31   8    -0.07   0.07   0.06    -0.07  -0.22   0.05    -0.01  -0.04   0.04
  32   7     0.01   0.12  -0.12     0.21  -0.13   0.08    -0.09  -0.07   0.11
  33   1     0.01   0.05  -0.03     0.05  -0.06   0.02    -0.05  -0.03   0.04
  34   1     0.00   0.03  -0.04     0.08  -0.01   0.02    -0.01  -0.01   0.02
  35   7    -0.11  -0.04   0.02     0.10   0.00   0.04     0.21   0.06  -0.08
  36   1    -0.02  -0.01  -0.01     0.05   0.01   0.02     0.05   0.02  -0.02
  37   1    -0.02  -0.02   0.02    -0.00  -0.00   0.01     0.05   0.01  -0.02
  38   6     0.06  -0.15   0.08     0.05  -0.03  -0.03     0.04  -0.11   0.02
  39   8     0.12  -0.12   0.08     0.19   0.12  -0.07     0.11  -0.10   0.00
  40   7     0.00  -0.21   0.07    -0.02  -0.07  -0.07     0.03  -0.04  -0.01
  41   1     0.00  -0.07   0.01    -0.00   0.00  -0.04     0.01  -0.00  -0.01
  42   1     0.00  -0.05   0.02    -0.03  -0.04  -0.02    -0.00  -0.00   0.00
  43   7     0.06  -0.15   0.12    -0.00  -0.14   0.02    -0.00  -0.21   0.07
  44   1     0.00  -0.06   0.04    -0.02  -0.07   0.01    -0.01  -0.06   0.02
  45   1     0.02  -0.03   0.03     0.01  -0.03   0.01     0.00  -0.06   0.02
  46   6    -0.02  -0.01   0.00    -0.03  -0.09  -0.00    -0.11  -0.00   0.08
  47   8     0.05  -0.07   0.12    -0.11  -0.04  -0.01    -0.07  -0.05  -0.01
  48   7     0.01   0.01   0.08     0.00  -0.23   0.13    -0.22   0.22  -0.23
  49   1     0.03  -0.00   0.07    -0.02  -0.07   0.04    -0.06   0.08  -0.13
  50   1    -0.01   0.02  -0.00     0.01  -0.07   0.01    -0.06   0.06  -0.02
  51   7    -0.14   0.05  -0.22     0.01  -0.04  -0.13    -0.06  -0.16   0.55
  52   1    -0.05   0.02  -0.08     0.02  -0.03  -0.02    -0.04  -0.02   0.14
  53   1    -0.04   0.01  -0.06     0.01   0.01  -0.03    -0.02  -0.05   0.13
                     10                     11                     12
                        a                      a                      a 
 Frequencies --    65.2521                70.9999                75.8645
 Red. masses --    11.4322                11.9211                12.2742
 Frc consts  --     0.0000                 0.0000                 0.0000
 IR Inten    --     0.5098                 8.6796                 1.6396
 Raman Activ --     0.0000                 0.0000                 0.0000
 Depolar     --     0.0000                 0.0000                 0.0000
 Atom AN      X      Y      Z        X      Y      Z        X      Y      Z
   1   8    -0.14  -0.00   0.02    -0.06   0.00   0.04     0.05   0.12   0.12
   2   6    -0.14   0.01   0.05     0.00  -0.06  -0.08     0.10   0.06  -0.01
   3   1    -0.05   0.02   0.02     0.03  -0.04  -0.03     0.05   0.01  -0.00
   4   1    -0.04  -0.01   0.03    -0.02  -0.01  -0.06     0.01   0.02  -0.03
   5   6    -0.11  -0.01  -0.02     0.00  -0.06  -0.06     0.10   0.07   0.02
   6   1    -0.05  -0.01  -0.01    -0.02  -0.00  -0.01     0.04   0.02   0.01
   7   1    -0.02  -0.01  -0.03     0.01  -0.03  -0.03     0.02   0.02   0.02
   8   7    -0.03   0.03   0.01     0.05  -0.09   0.04     0.06   0.06  -0.01
   9   6    -0.14  -0.07   0.21     0.09   0.09  -0.00     0.14   0.14  -0.15
  10   1    -0.09  -0.04   0.05     0.04   0.06   0.01     0.07   0.05  -0.04
  11   1    -0.03  -0.02   0.07     0.04   0.02   0.02     0.04   0.04  -0.05
  12   1    -0.02  -0.03   0.10     0.01   0.03  -0.04     0.02   0.05  -0.07
  13   6    -0.09   0.03  -0.22     0.14  -0.11   0.21     0.12   0.04   0.15
  14   1    -0.08  -0.02  -0.08     0.06  -0.00   0.07     0.07   0.03   0.05
  15   1    -0.00   0.03  -0.11     0.03  -0.06   0.08     0.02  -0.00   0.07
  16   1    -0.01   0.01  -0.05     0.05  -0.03   0.07     0.03   0.01   0.04
  17   6     0.23   0.15   0.07    -0.03  -0.25   0.00    -0.13  -0.02  -0.05
  18   1     0.09   0.07  -0.02    -0.02  -0.12   0.01    -0.06  -0.02   0.02
  19   1     0.08   0.04   0.08    -0.04  -0.06  -0.04    -0.05  -0.00  -0.05
  20   1     0.08   0.05   0.02     0.01  -0.07   0.03    -0.04  -0.01  -0.02
  21   1    -0.03   0.01   0.01    -0.03   0.01   0.01    -0.01  -0.01   0.02
  22   6    -0.04   0.13   0.06    -0.02   0.06   0.07    -0.09  -0.09  -0.03
  23   8    -0.04   0.16   0.07     0.15   0.11   0.14    -0.34  -0.23  -0.05
  24   7    -0.04   0.12   0.06    -0.30   0.01  -0.08    -0.05   0.04   0.02
  25   1    -0.01   0.03   0.01    -0.07   0.00  -0.03    -0.04   0.02   0.02
  26   1    -0.01   0.03   0.02    -0.11  -0.00  -0.04     0.04   0.03   0.02
  27   7    -0.05   0.14   0.09     0.05   0.08   0.17     0.13  -0.13  -0.09
  28   1    -0.01   0.03   0.03    -0.03   0.01   0.04     0.07  -0.01  -0.03
  29   1    -0.01   0.04   0.03     0.06   0.03   0.08     0.01  -0.07  -0.05
  30   6     0.06  -0.08   0.02     0.03   0.06  -0.04     0.05   0.01  -0.01
  31   8    -0.01  -0.07   0.19     0.14   0.14  -0.04     0.04   0.02   0.04
  32   7    -0.17  -0.10   0.03    -0.27  -0.01   0.07    -0.18  -0.05   0.08
  33   1    -0.10  -0.02   0.03    -0.09  -0.00   0.03    -0.08  -0.02   0.04
  34   1    -0.03  -0.03  -0.04    -0.09  -0.02   0.01    -0.04  -0.02  -0.00
  35   7     0.38  -0.09  -0.18     0.20   0.06  -0.14     0.29   0.05  -0.15
  36   1     0.10  -0.03  -0.06     0.02   0.00  -0.03     0.07   0.01  -0.04
  37   1     0.11  -0.04  -0.03     0.07   0.02  -0.04     0.08   0.00  -0.03
  38   6     0.05   0.03  -0.08    -0.10   0.06  -0.01     0.04   0.02   0.06
  39   8    -0.01  -0.06  -0.08    -0.18   0.25   0.04     0.04  -0.05   0.06
  40   7     0.10   0.09  -0.08    -0.04  -0.10   0.08     0.04   0.09   0.05
  41   1     0.02   0.02  -0.01    -0.02  -0.03   0.04     0.01   0.02   0.01
  42   1     0.04   0.04  -0.02     0.01  -0.04   0.01     0.01   0.03   0.02
  43   7     0.08   0.10  -0.11    -0.10   0.02  -0.16     0.04   0.03   0.09
  44   1     0.03   0.04  -0.03    -0.02  -0.03  -0.05     0.01   0.02   0.02
  45   1     0.01  -0.01  -0.03    -0.04   0.03  -0.05     0.00  -0.02   0.02
  46   6     0.02  -0.12  -0.03     0.07  -0.04  -0.07    -0.11  -0.05  -0.03
  47   8     0.09  -0.20  -0.07    -0.02   0.04  -0.15    -0.02  -0.14   0.04
  48   7     0.08  -0.06   0.07     0.06  -0.13  -0.07    -0.03  -0.01   0.15
  49   1     0.04  -0.01   0.02    -0.01  -0.03  -0.05     0.02  -0.00   0.08
  50   1     0.00   0.00   0.02     0.03  -0.05  -0.01    -0.04   0.02   0.01
  51   7    -0.09  -0.14  -0.08     0.19  -0.05   0.02    -0.31   0.00  -0.30
  52   1    -0.03  -0.03  -0.01     0.07  -0.03   0.02    -0.09   0.01  -0.07
  53   1    -0.03  -0.05  -0.02     0.06   0.01   0.01    -0.09  -0.02  -0.07
                     13                     14                     15
                        a                      a                      a 
 Frequencies --    80.2429                83.4648                92.3628
 Red. masses --    12.5246                12.4514                13.4851
 Frc consts  --     0.0000                 0.0000                 0.0000
 IR Inten    --     2.5278                 4.1885                 5.5285
 Raman Activ --     0.0000                 0.0000                 0.0000
 Depolar     --     0.0000                 0.0000                 0.0000
 Atom AN      X      Y      Z        X      Y      Z        X      Y      Z
   1   8    -0.06   0.07   0.13     0.08  -0.14   0.07    -0.18   0.02   0.18
   2   6    -0.02   0.06   0.02     0.03  -0.06   0.15    -0.06  -0.02  -0.05
   3   1     0.02   0.02   0.01    -0.01   0.00   0.05     0.03  -0.01  -0.01
   4   1    -0.01   0.02  -0.01     0.02  -0.02   0.07    -0.04  -0.01  -0.05
   5   6    -0.03   0.06  -0.01     0.02  -0.06   0.10    -0.07  -0.03  -0.11
   6   1    -0.02   0.02  -0.00     0.01  -0.03   0.03    -0.05  -0.00  -0.03
   7   1    -0.01   0.02  -0.01     0.00  -0.01   0.03    -0.01  -0.01  -0.06
   8   7    -0.02   0.06   0.00    -0.00  -0.04   0.03    -0.00  -0.04  -0.01
   9   6     0.01   0.11  -0.04    -0.01  -0.12   0.03    -0.01   0.06   0.04
  10   1     0.01   0.06  -0.01    -0.01  -0.06   0.00    -0.01   0.04   0.01
  11   1    -0.00   0.02   0.01    -0.01  -0.02  -0.01     0.01   0.01   0.03
  12   1     0.00   0.03  -0.04     0.00  -0.03   0.03    -0.01   0.02  -0.00
  13   6     0.02   0.05   0.08    -0.03  -0.04  -0.07     0.03  -0.04   0.04
  14   1     0.01   0.03   0.02    -0.02  -0.03  -0.03     0.01  -0.00   0.01
  15   1     0.00  -0.00   0.03    -0.00   0.00  -0.03     0.01  -0.02   0.01
  16   1     0.01   0.01   0.03    -0.01  -0.01  -0.03     0.01  -0.01   0.02
  17   6    -0.08   0.01  -0.01     0.03   0.07   0.05     0.04  -0.13  -0.02
  18   1    -0.03  -0.02   0.00     0.01   0.04   0.01     0.01  -0.06  -0.02
  19   1    -0.04   0.01  -0.02     0.02   0.02   0.04    -0.00  -0.03  -0.02
  20   1    -0.02   0.00   0.00     0.01   0.03  -0.00     0.03  -0.04   0.02
  21   1    -0.03  -0.00   0.02     0.03  -0.02   0.02    -0.06  -0.03   0.03
  22   6    -0.05   0.01   0.01     0.03   0.13  -0.01     0.00  -0.01   0.03
  23   8    -0.10  -0.07   0.07     0.02   0.06   0.08     0.04  -0.11   0.17
  24   7    -0.23   0.10  -0.06    -0.02   0.24  -0.01    -0.10   0.11   0.02
  25   1    -0.06   0.03  -0.00     0.01   0.06   0.02    -0.03   0.03   0.02
  26   1    -0.04   0.04  -0.02    -0.00   0.07  -0.01    -0.03   0.05  -0.02
  27   7     0.17  -0.01  -0.00     0.09   0.11  -0.13     0.07  -0.05  -0.09
  28   1     0.03   0.01  -0.02     0.02   0.05  -0.06     0.01   0.01  -0.05
  29   1     0.05  -0.03  -0.00     0.02   0.00  -0.04     0.03  -0.04  -0.03
  30   6     0.02  -0.15   0.07     0.04   0.03  -0.03    -0.11   0.08   0.04
  31   8     0.04  -0.09   0.24     0.16   0.06  -0.17    -0.31   0.02   0.13
  32   7     0.19   0.02  -0.23    -0.03  -0.04   0.08     0.00   0.13  -0.02
  33   1     0.08   0.06  -0.07     0.01  -0.02   0.01    -0.03   0.03   0.01
  34   1     0.04  -0.01  -0.08    -0.02  -0.01   0.05     0.02   0.05  -0.02
  35   7    -0.18  -0.42   0.19    -0.03   0.07   0.01    -0.04   0.14  -0.01
  36   1    -0.03  -0.12   0.01    -0.03   0.02   0.02     0.04   0.05  -0.03
  37   1    -0.02  -0.11   0.06     0.00   0.03  -0.01    -0.02   0.02   0.01
  38   6     0.04   0.04  -0.07    -0.06  -0.12   0.01     0.10   0.02  -0.11
  39   8    -0.09   0.16  -0.00    -0.10   0.02   0.05     0.38   0.19  -0.21
  40   7     0.21  -0.00   0.04     0.14   0.07   0.06    -0.06   0.06  -0.24
  41   1     0.05  -0.00   0.05     0.04   0.08   0.04    -0.00   0.06  -0.12
  42   1     0.09  -0.01  -0.00     0.03   0.01   0.01    -0.08  -0.00  -0.06
  43   7     0.04  -0.07  -0.26    -0.23  -0.59  -0.09    -0.05  -0.26   0.08
  44   1     0.04  -0.04  -0.08    -0.04  -0.15  -0.03    -0.06  -0.09   0.04
  45   1    -0.01  -0.01  -0.09    -0.06  -0.12  -0.03     0.02  -0.05   0.05
  46   6     0.02   0.01  -0.04    -0.03   0.08  -0.05     0.09  -0.03   0.06
  47   8     0.09  -0.05  -0.19    -0.03   0.08  -0.04     0.18  -0.10   0.26
  48   7     0.07   0.15   0.02     0.02   0.05   0.09     0.05   0.01  -0.08
  49   1     0.04   0.05  -0.01     0.01   0.01   0.04     0.03  -0.00   0.02
  50   1     0.01   0.05   0.04    -0.00   0.02   0.01     0.01   0.01  -0.04
  51   7    -0.08  -0.05   0.07    -0.10   0.13  -0.22     0.06  -0.01  -0.04
  52   1    -0.03  -0.00   0.05    -0.02   0.03  -0.05    -0.00   0.01  -0.05
  53   1    -0.03  -0.03   0.01    -0.02   0.03  -0.05     0.02  -0.01   0.01
                     16                     17                     18
                        a                      a                      a 
 Frequencies --    96.7594               102.3527               114.3326
 Red. masses --    12.2959                12.4988                13.7316
 Frc consts  --     0.0000                 0.0000                 0.0000
 IR Inten    --     7.0758                 6.8373                17.1259
 Raman Activ --     0.0000                 0.0000                 0.0000
 Depolar     --     0.0000                 0.0000                 0.0000
 Atom AN      X      Y      Z        X      Y      Z        X      Y      Z
   1   8    -0.10   0.16  -0.02     0.16  -0.07  -0.09    -0.00  -0.08  -0.07
   2   6    -0.12  -0.02   0.11     0.06  -0.02   0.10    -0.07  -0.03   0.09
   3   1    -0.08   0.00   0.03    -0.02  -0.01   0.02    -0.06   0.01   0.03
   4   1    -0.05  -0.04   0.06     0.04   0.00   0.05    -0.00  -0.02   0.07
   5   6     0.10  -0.10   0.15     0.03   0.00   0.20    -0.04  -0.04   0.08
   6   1     0.06  -0.03   0.05     0.04   0.01   0.06     0.00  -0.02   0.02
   7   1     0.02  -0.07   0.06    -0.01   0.01   0.09    -0.02  -0.01   0.03
   8   7     0.22  -0.00   0.10    -0.08  -0.04   0.14    -0.04  -0.01   0.02
   9   6     0.23   0.07   0.05    -0.00  -0.05  -0.02    -0.05  -0.09   0.04
  10   1     0.08   0.01   0.01     0.03  -0.02  -0.00    -0.03  -0.04   0.01
  11   1     0.08   0.03   0.01    -0.01  -0.01  -0.03    -0.02  -0.03   0.00
  12   1     0.05   0.03   0.02    -0.00  -0.02  -0.02    -0.01  -0.03   0.03
  13   6     0.31  -0.07   0.05    -0.08  -0.02   0.20    -0.06  -0.01  -0.09
  14   1     0.08  -0.03   0.01    -0.00  -0.00   0.06    -0.03  -0.01  -0.03
  15   1     0.09  -0.04   0.01    -0.04  -0.00   0.08    -0.01   0.01  -0.04
  16   1     0.11  -0.01   0.01    -0.04  -0.01   0.05    -0.01   0.00  -0.03
  17   6     0.17   0.09   0.10    -0.25  -0.04   0.10     0.02   0.11   0.04
  18   1     0.04   0.03   0.04    -0.09  -0.01   0.06     0.01   0.05   0.01
  19   1     0.04   0.03   0.04    -0.08  -0.01   0.00     0.01   0.03   0.04
  20   1     0.05   0.04   0.01    -0.09  -0.01   0.01     0.01   0.04  -0.01
  21   1     0.01   0.04  -0.01     0.06   0.01  -0.02     0.02  -0.02  -0.02
  22   6     0.02   0.03  -0.03     0.03   0.05  -0.02     0.04  -0.11  -0.06
  23   8     0.01   0.05  -0.07     0.01   0.10  -0.06     0.12  -0.08  -0.07
  24   7     0.07  -0.00  -0.02     0.15   0.00   0.03    -0.04  -0.15  -0.11
  25   1     0.02  -0.00  -0.01     0.03   0.00  -0.01    -0.00  -0.04  -0.02
  26   1     0.02  -0.00   0.00     0.03  -0.01   0.02    -0.01  -0.04  -0.03
  27   7    -0.01   0.03  -0.01    -0.09   0.07  -0.01     0.06  -0.11  -0.01
  28   1    -0.01   0.00  -0.00    -0.01   0.01   0.01    -0.01  -0.03  -0.01
  29   1    -0.02   0.02  -0.01    -0.03   0.03  -0.00     0.02  -0.02   0.00
  30   6    -0.12  -0.15  -0.09     0.05   0.02  -0.01     0.05  -0.06  -0.08
  31   8    -0.36  -0.27   0.01     0.18   0.13   0.06     0.16  -0.03  -0.15
  32   7     0.05  -0.12  -0.15    -0.12   0.06  -0.08    -0.05  -0.11  -0.02
  33   1    -0.02  -0.05  -0.02    -0.03   0.05  -0.02     0.00  -0.03  -0.01
  34   1     0.05  -0.01  -0.06    -0.05  -0.01  -0.04    -0.02  -0.04   0.00
  35   7    -0.03  -0.06  -0.16     0.05  -0.14  -0.01     0.03  -0.09  -0.06
  36   1     0.05   0.00  -0.06    -0.00  -0.05  -0.02    -0.01  -0.03  -0.01
  37   1    -0.02  -0.02  -0.04     0.05  -0.04   0.01     0.02  -0.02  -0.02
  38   6    -0.16  -0.00   0.01    -0.12  -0.02  -0.17     0.03   0.19   0.06
  39   8    -0.20  -0.00   0.03    -0.11  -0.10  -0.22     0.20   0.65   0.06
  40   7    -0.15  -0.00   0.02    -0.19   0.03  -0.24    -0.11  -0.17   0.10
  41   1    -0.04   0.00   0.01    -0.05   0.01  -0.08    -0.02  -0.03   0.01
  42   1    -0.04  -0.00   0.01    -0.07   0.02  -0.06    -0.05  -0.11  -0.00
  43   7    -0.15   0.02  -0.01    -0.11   0.06  -0.12    -0.01   0.11   0.04
  44   1    -0.04   0.00  -0.00    -0.05   0.02  -0.02    -0.04  -0.09   0.02
  45   1    -0.04   0.01   0.00    -0.02  -0.00  -0.02     0.01   0.05   0.02
  46   6     0.03   0.07  -0.01     0.11  -0.02   0.06    -0.05   0.03   0.05
  47   8     0.07   0.06   0.05     0.30  -0.16   0.22     0.06  -0.06   0.13
  48   7     0.02   0.10  -0.06     0.10   0.17  -0.06    -0.03   0.14   0.05
  49   1     0.02   0.02   0.02     0.07   0.05   0.01     0.03   0.04   0.04
  50   1     0.01   0.02   0.00    -0.00   0.08  -0.03    -0.03   0.06   0.01
  51   7     0.02   0.10  -0.08    -0.03  -0.03   0.01    -0.17   0.04  -0.05
  52   1     0.00   0.03  -0.04    -0.05   0.02  -0.04    -0.06   0.02  -0.03
  53   1     0.01   0.03  -0.01    -0.01  -0.04   0.01    -0.05  -0.00  -0.01
                     19                     20                     21
                        a                      a                      a 
 Frequencies --   125.6864               132.5832               136.4090
 Red. masses --    13.3224                12.3122                12.9543
 Frc consts  --     0.0000                 0.0000                 0.0000
 IR Inten    --    10.1962                10.9599                13.1400
 Raman Activ --     0.0000                 0.0000                 0.0000
 Depolar     --     0.0000                 0.0000                 0.0000
 Atom AN      X      Y      Z        X      Y      Z        X      Y      Z
   1   8    -0.03  -0.05  -0.03    -0.07   0.11   0.07    -0.08   0.21  -0.02
   2   6    -0.02  -0.00  -0.06     0.01   0.09  -0.11    -0.03   0.09  -0.07
   3   1     0.00   0.01  -0.01     0.05   0.01  -0.03     0.00  -0.01  -0.03
   4   1    -0.01  -0.01  -0.01    -0.01   0.04  -0.07    -0.02   0.04  -0.05
   5   6    -0.03  -0.01  -0.14    -0.05   0.11  -0.11     0.00   0.10   0.08
   6   1    -0.01  -0.02  -0.04    -0.03   0.04  -0.03     0.02   0.06   0.03
   7   1    -0.01   0.00  -0.05    -0.01   0.04  -0.05    -0.00   0.01   0.04
   8   7    -0.02   0.03  -0.21    -0.08   0.06  -0.05    -0.02   0.05   0.15
   9   6     0.00   0.02  -0.21    -0.09   0.03  -0.01    -0.04  -0.01   0.15
  10   1     0.01  -0.00  -0.06    -0.03   0.01  -0.00    -0.02  -0.02   0.04
  11   1     0.00   0.01  -0.07    -0.03   0.00   0.01    -0.01   0.00   0.03
  12   1    -0.00   0.01  -0.06    -0.02   0.00  -0.00    -0.01  -0.00   0.06
  13   6    -0.00   0.01  -0.21    -0.12   0.09  -0.01    -0.07   0.08   0.15
  14   1    -0.00   0.00  -0.06    -0.03   0.04  -0.00    -0.03   0.03   0.04
  15   1     0.00   0.00  -0.06    -0.03   0.03  -0.00    -0.02   0.03   0.04
  16   1     0.00   0.01  -0.06    -0.04   0.02   0.00    -0.03   0.01   0.05
  17   6    -0.05   0.08  -0.19    -0.04  -0.01  -0.05     0.02  -0.01   0.14
  18   1    -0.02   0.03  -0.05    -0.01  -0.01  -0.02     0.01   0.02   0.03
  19   1    -0.02   0.03  -0.05    -0.01  -0.01  -0.02     0.03  -0.02   0.04
  20   1    -0.02   0.03  -0.07    -0.01  -0.01   0.00    -0.01  -0.02   0.05
  21   1    -0.02  -0.00  -0.00    -0.04   0.01   0.01    -0.03   0.05  -0.01
  22   6    -0.02   0.02   0.02    -0.01   0.03   0.02    -0.13  -0.03  -0.00
  23   8    -0.02   0.03   0.01    -0.08  -0.02   0.05    -0.34  -0.04  -0.10
  24   7    -0.05   0.01   0.00     0.02   0.11   0.07    -0.06  -0.02   0.04
  25   1    -0.01   0.00   0.00    -0.00   0.04   0.03    -0.03  -0.00   0.01
  26   1    -0.01   0.00   0.00     0.01   0.04   0.01     0.03  -0.00   0.04
  27   7    -0.01   0.03   0.06     0.01   0.02  -0.05     0.01  -0.01   0.10
  28   1     0.00   0.00   0.02     0.03   0.02  -0.02     0.03  -0.01   0.04
  29   1     0.01   0.01   0.02     0.00  -0.01  -0.02    -0.02  -0.00   0.01
  30   6    -0.03   0.04   0.00     0.08  -0.18  -0.12     0.04  -0.06  -0.10
  31   8    -0.06   0.01  -0.05     0.20  -0.10  -0.05     0.10  -0.16  -0.41
  32   7     0.02   0.02   0.04    -0.09  -0.17  -0.18     0.16  -0.24   0.18
  33   1     0.00  -0.01   0.01    -0.02  -0.02  -0.05     0.09  -0.12   0.03
  34   1     0.00   0.01   0.02    -0.03  -0.06  -0.07     0.05  -0.04   0.12
  35   7    -0.05   0.09   0.01     0.13  -0.32  -0.14    -0.12   0.15  -0.01
  36   1     0.01   0.03  -0.00    -0.00  -0.10  -0.04    -0.05   0.06   0.05
  37   1    -0.00   0.02   0.00     0.04  -0.09  -0.04    -0.05   0.06  -0.03
  38   6    -0.09   0.01   0.14    -0.06  -0.06   0.15     0.03   0.07  -0.08
  39   8    -0.28   0.00   0.24     0.10  -0.09   0.10     0.01   0.09  -0.07
  40   7     0.10   0.02   0.27    -0.22  -0.02   0.05     0.10   0.14  -0.07
  41   1     0.02  -0.00   0.12    -0.05   0.01  -0.03     0.03   0.05  -0.01
  42   1     0.07   0.01   0.06    -0.10  -0.00   0.03     0.03   0.04  -0.02
  43   7    -0.07  -0.00   0.00    -0.11  -0.13   0.33    -0.01  -0.05  -0.11
  44   1     0.01  -0.00  -0.01    -0.05  -0.01   0.10     0.00  -0.01  -0.03
  45   1    -0.03  -0.01  -0.00    -0.01  -0.00   0.10    -0.00  -0.02  -0.03
  46   6     0.16  -0.10   0.10     0.11   0.09   0.01     0.10  -0.09  -0.00
  47   8     0.35  -0.25   0.37     0.05   0.19   0.04     0.11  -0.09   0.04
  48   7     0.10   0.06  -0.15     0.09   0.01  -0.05     0.06  -0.10  -0.11
  49   1     0.07   0.01   0.02     0.01  -0.01   0.01     0.01  -0.03  -0.04
  50   1     0.01   0.04  -0.04     0.05  -0.02   0.01     0.02  -0.03  -0.04
  51   7     0.06  -0.10   0.02     0.27   0.14   0.04     0.14  -0.10   0.06
  52   1    -0.03  -0.00  -0.06     0.08   0.02  -0.02     0.03  -0.02   0.00
  53   1     0.01  -0.05   0.03     0.07   0.05  -0.00     0.03  -0.03   0.01
                     22                     23                     24
                        a                      a                      a 
 Frequencies --   146.6485               156.6729               188.6755
 Red. masses --    12.2796                13.2930                12.9818
 Frc consts  --     0.0000                 0.0000                 0.0000
 IR Inten    --     9.2781                11.8825                34.9552
 Raman Activ --     0.0000                 0.0000                 0.0000
 Depolar     --     0.0000                 0.0000                 0.0000
 Atom AN      X      Y      Z        X      Y      Z        X      Y      Z
   1   8     0.08  -0.13  -0.19    -0.10   0.17   0.10    -0.01   0.05  -0.06
   2   6    -0.01  -0.06   0.02    -0.01   0.09  -0.07    -0.01   0.01  -0.03
   3   1    -0.05  -0.00   0.01     0.04   0.01  -0.02    -0.01  -0.00  -0.01
   4   1     0.02  -0.02   0.05    -0.02   0.03  -0.06    -0.00   0.00  -0.01
   5   6     0.02  -0.06   0.06    -0.04   0.09  -0.09     0.01   0.01   0.01
   6   1     0.03  -0.02   0.02    -0.04   0.03  -0.02     0.01   0.01   0.00
   7   1    -0.00  -0.02   0.04    -0.00   0.03  -0.05    -0.00  -0.00   0.01
   8   7     0.01  -0.03  -0.01    -0.03   0.04   0.02     0.00   0.00   0.01
   9   6     0.03  -0.04  -0.04    -0.04   0.07   0.05     0.00  -0.01  -0.00
  10   1     0.02  -0.01  -0.01    -0.02   0.02   0.02     0.00  -0.02  -0.00
  11   1     0.00  -0.01  -0.01    -0.01   0.02   0.02     0.00  -0.00  -0.01
  12   1     0.01  -0.01  -0.02    -0.01   0.02   0.02     0.00  -0.00   0.01
  13   6     0.03  -0.04  -0.06    -0.05   0.06   0.09    -0.00   0.00   0.00
  14   1     0.01  -0.02  -0.02    -0.01   0.03   0.03    -0.01   0.00  -0.00
  15   1     0.01  -0.01  -0.02    -0.01   0.01   0.03     0.00   0.00  -0.00
  16   1     0.01  -0.01  -0.02    -0.02   0.01   0.03     0.00   0.00   0.01
  17   6    -0.01   0.06   0.00     0.01  -0.09   0.01     0.00  -0.00   0.01
  18   1    -0.01   0.03   0.01     0.01  -0.05  -0.01     0.00   0.01   0.00
  19   1    -0.00   0.02   0.01    -0.00  -0.03  -0.02     0.01  -0.01   0.00
  20   1    -0.01   0.03  -0.02     0.01  -0.03   0.03    -0.01  -0.00   0.00
  21   1     0.04  -0.00  -0.04    -0.02   0.02   0.02     0.01   0.01  -0.02
  22   6    -0.10  -0.15   0.01     0.15  -0.09   0.03     0.03  -0.04   0.02
  23   8    -0.13  -0.05  -0.13     0.54  -0.01   0.14     0.14  -0.01   0.05
  24   7    -0.12  -0.28  -0.05    -0.07  -0.20  -0.13    -0.03  -0.06  -0.01
  25   1    -0.05  -0.08  -0.04     0.01  -0.07  -0.05    -0.02  -0.02  -0.01
  26   1    -0.02  -0.08   0.01    -0.09  -0.07  -0.07    -0.03  -0.02  -0.02
  27   7    -0.08  -0.11   0.21    -0.08  -0.09   0.00    -0.05  -0.04   0.03
  28   1    -0.01  -0.06   0.09    -0.09  -0.04  -0.01    -0.02  -0.02   0.01
  29   1    -0.01   0.01   0.08     0.04   0.00   0.05     0.02   0.00   0.03
  30   6    -0.01   0.01   0.02     0.03  -0.08  -0.07    -0.00   0.05   0.05
  31   8    -0.02   0.06   0.17     0.07  -0.09  -0.15    -0.02   0.03  -0.01
  32   7    -0.09   0.09  -0.11     0.02  -0.13   0.00     0.07   0.03   0.09
  33   1    -0.05   0.06  -0.02     0.02  -0.05  -0.01     0.03  -0.00   0.02
  34   1    -0.03   0.01  -0.06     0.01  -0.03   0.02     0.03   0.02   0.04
  35   7     0.07  -0.10  -0.02     0.01  -0.04  -0.06    -0.09   0.08   0.08
  36   1     0.02  -0.04  -0.03    -0.01  -0.01  -0.00     0.01   0.03   0.02
  37   1     0.02  -0.04   0.01    -0.00  -0.01  -0.02     0.02   0.04   0.01
  38   6     0.05   0.15   0.01     0.01   0.00  -0.04    -0.09   0.04   0.13
  39   8     0.05   0.08   0.01    -0.10  -0.20  -0.02     0.06  -0.02   0.08
  40   7     0.17   0.53  -0.02     0.14   0.27  -0.04    -0.23   0.19   0.01
  41   1     0.05   0.18  -0.01     0.03   0.07   0.01    -0.05   0.08  -0.04
  42   1     0.02   0.16   0.01     0.05   0.11   0.01    -0.11   0.07   0.03
  43   7    -0.10  -0.17   0.07    -0.00  -0.02  -0.04    -0.14  -0.04   0.29
  44   1    -0.01   0.02   0.01     0.02   0.06  -0.02    -0.04   0.00   0.08
  45   1    -0.02  -0.04   0.02    -0.00  -0.02  -0.01    -0.05  -0.05   0.08
  46   6     0.03   0.06   0.01    -0.10   0.05   0.07     0.09  -0.09  -0.21
  47   8    -0.05   0.14   0.03    -0.01  -0.04   0.19     0.16  -0.17  -0.53
  48   7     0.00  -0.05  -0.03    -0.10   0.12   0.07     0.25   0.19   0.01
  49   1    -0.03  -0.02  -0.01     0.00   0.03   0.06     0.13   0.08  -0.04
  50   1     0.02  -0.03  -0.01    -0.04   0.05   0.01     0.03   0.08   0.08
  51   7     0.17   0.08   0.05    -0.19   0.08  -0.08    -0.14  -0.22  -0.05
  52   1     0.06   0.01  -0.01    -0.06   0.02  -0.04    -0.05  -0.03   0.07
  53   1     0.05   0.04  -0.01    -0.05   0.02   0.01    -0.05  -0.10  -0.03
                     25                     26                     27
                        a                      a                      a 
 Frequencies --   203.9881               222.9408               265.4061
 Red. masses --     8.9275                12.8800                 6.3149
 Frc consts  --     0.0000                 0.0000                 0.0000
 IR Inten    --    15.9558                11.1457                25.5873
 Raman Activ --     0.0000                 0.0000                 0.0000
 Depolar     --     0.0000                 0.0000                 0.0000
 Atom AN      X      Y      Z        X      Y      Z        X      Y      Z
   1   8     0.16  -0.46  -0.11    -0.02   0.10   0.59     0.03   0.33  -0.19
   2   6    -0.04   0.06   0.19     0.11   0.00   0.28    -0.10   0.11   0.20
   3   1    -0.08   0.12   0.07     0.08   0.04   0.09    -0.14   0.11   0.07
   4   1     0.06   0.01   0.17    -0.01  -0.03   0.06    -0.03  -0.05   0.18
   5   6    -0.25   0.09  -0.18     0.02  -0.03  -0.06     0.14  -0.03   0.03
   6   1    -0.19  -0.01  -0.07    -0.05  -0.05  -0.03     0.06  -0.04   0.00
   7   1    -0.02   0.06  -0.17     0.03   0.04  -0.07     0.03  -0.00   0.04
   8   7    -0.04   0.14   0.02    -0.02  -0.07  -0.06     0.04  -0.06  -0.08
   9   6    -0.05   0.31   0.10    -0.05  -0.03  -0.01     0.02  -0.16  -0.08
  10   1    -0.02   0.25   0.05    -0.03  -0.02  -0.01     0.02   0.04  -0.01
  11   1    -0.05   0.01   0.15     0.01   0.00  -0.00    -0.04  -0.10   0.03
  12   1     0.03   0.04  -0.10    -0.03   0.01   0.02     0.05  -0.09  -0.09
  13   6     0.16   0.03   0.12    -0.06  -0.04  -0.05    -0.17   0.06  -0.06
  14   1     0.11  -0.01   0.04    -0.02  -0.01  -0.01     0.03  -0.02  -0.01
  15   1     0.01  -0.02   0.10    -0.02  -0.00  -0.01    -0.09   0.10   0.07
  16   1     0.05   0.03  -0.01    -0.03  -0.02  -0.02    -0.13   0.00  -0.11
  17   6     0.05   0.01   0.01     0.01  -0.16  -0.06     0.11  -0.22  -0.09
  18   1     0.01  -0.19  -0.04     0.00  -0.12  -0.04     0.02  -0.37  -0.09
  19   1    -0.13   0.11  -0.01    -0.05  -0.01  -0.04    -0.20   0.10  -0.06
  20   1     0.18   0.07   0.07     0.06  -0.03   0.02     0.29   0.03   0.07
  21   1     0.05  -0.08  -0.02    -0.02  -0.02   0.14     0.08   0.05  -0.06
  22   6    -0.01   0.01  -0.01    -0.02   0.08  -0.18    -0.01  -0.03   0.05
  23   8    -0.05   0.03  -0.05    -0.08   0.18  -0.37    -0.01  -0.05   0.08
  24   7     0.03  -0.01  -0.00     0.10  -0.19  -0.24    -0.03   0.06   0.08
  25   1     0.00  -0.00  -0.01     0.05  -0.06  -0.10    -0.02   0.02   0.03
  26   1     0.01  -0.01   0.01     0.09  -0.09   0.03    -0.02   0.03  -0.01
  27   7    -0.02   0.03   0.01     0.03   0.12   0.08     0.00  -0.04  -0.00
  28   1     0.03   0.00   0.03    -0.07   0.01   0.01     0.01  -0.00  -0.00
  29   1     0.02   0.01   0.02    -0.10   0.07  -0.03     0.01  -0.02   0.00
  30   6    -0.00  -0.04  -0.04    -0.00   0.01   0.01    -0.01  -0.00   0.01
  31   8    -0.01  -0.07  -0.10    -0.01   0.01   0.01    -0.01   0.00   0.01
  32   7     0.04  -0.09   0.03    -0.00   0.01   0.00     0.01   0.03  -0.02
  33   1     0.02  -0.04   0.00     0.00   0.00   0.00    -0.03  -0.00   0.01
  34   1     0.02  -0.01   0.02     0.00   0.00  -0.00    -0.04  -0.02   0.02
  35   7    -0.03   0.02  -0.03    -0.00   0.00   0.01     0.01   0.00   0.00
  36   1    -0.01   0.01   0.00     0.00   0.00  -0.00     0.00  -0.00  -0.00
  37   1    -0.01   0.01  -0.01     0.00   0.00   0.00    -0.00  -0.01   0.01
  38   6     0.00  -0.02   0.01    -0.01   0.01   0.01    -0.00   0.01   0.00
  39   8     0.02  -0.05  -0.00     0.01   0.03   0.01    -0.01   0.01   0.00
  40   7    -0.02   0.02  -0.02    -0.02   0.05   0.01     0.00  -0.01   0.01
  41   1    -0.00   0.00  -0.01    -0.00   0.03  -0.00    -0.00  -0.00   0.00
  42   1    -0.01   0.01   0.00    -0.02   0.01   0.00     0.00  -0.00   0.00
  43   7     0.00  -0.00   0.04    -0.02   0.01   0.03    -0.01  -0.01  -0.00
  44   1    -0.00  -0.00   0.01    -0.01  -0.02   0.01    -0.00  -0.00  -0.00
  45   1    -0.00  -0.01   0.01    -0.00  -0.00   0.01     0.00   0.00  -0.00
  46   6     0.01  -0.01  -0.01     0.02  -0.01  -0.02     0.01   0.01  -0.01
  47   8     0.02  -0.02  -0.01     0.01  -0.01  -0.04     0.01   0.00   0.02
  48   7     0.02   0.01   0.01     0.02   0.01  -0.01     0.03  -0.03   0.12
  49   1     0.01   0.01  -0.00     0.01   0.00   0.00    -0.04   0.03  -0.15
  50   1    -0.00   0.01  -0.01     0.01  -0.00   0.02    -0.06   0.07  -0.24
  51   7    -0.01  -0.01  -0.01     0.02  -0.02   0.03    -0.00   0.01  -0.02
  52   1    -0.01   0.00  -0.01    -0.01   0.00  -0.02     0.03  -0.01   0.08
  53   1    -0.00  -0.01   0.00    -0.00  -0.00  -0.03     0.01  -0.01   0.04
                     28                     29                     30
                        a                      a                      a 
 Frequencies --   266.7804               303.3140               310.2474
 Red. masses --     3.4142                 3.1482                 7.7207
 Frc consts  --     0.0000                 0.0000                 0.0000
 IR Inten    --   132.9270               112.9289                 4.6975
 Raman Activ --     0.0000                 0.0000                 0.0000
 Depolar     --     0.0000                 0.0000                 0.0000
 Atom AN      X      Y      Z        X      Y      Z        X      Y      Z
   1   8     0.02   0.11  -0.08    -0.04  -0.08  -0.07    -0.17  -0.23   0.02
   2   6    -0.04   0.04   0.07    -0.03  -0.02  -0.07    -0.22   0.05   0.15
   3   1    -0.06   0.04   0.03    -0.01  -0.02  -0.02    -0.11   0.08   0.06
   4   1    -0.01  -0.02   0.07    -0.01   0.00  -0.03    -0.05  -0.02   0.13
   5   6     0.05  -0.01   0.02    -0.01   0.00  -0.00    -0.01  -0.01  -0.06
   6   1     0.02  -0.01   0.00     0.01   0.01   0.00    -0.01  -0.02  -0.02
   7   1     0.01   0.00   0.02    -0.01  -0.01   0.01     0.00  -0.04  -0.03
   8   7     0.01  -0.02  -0.02     0.02   0.03   0.01     0.13   0.07  -0.05
   9   6     0.01  -0.06  -0.03     0.04  -0.04  -0.03     0.20  -0.11  -0.23
  10   1     0.00   0.02  -0.00     0.03   0.05   0.00     0.11  -0.02  -0.06
  11   1    -0.02  -0.04   0.02    -0.04  -0.05   0.02    -0.01  -0.06  -0.09
  12   1     0.02  -0.04  -0.04     0.05  -0.05  -0.07     0.09  -0.06  -0.10
  13   6    -0.06   0.03  -0.01    -0.03   0.07   0.05    -0.18   0.31   0.26
  14   1     0.01  -0.01  -0.00     0.05  -0.00   0.02    -0.05   0.18   0.09
  15   1    -0.03   0.04   0.03    -0.04   0.06   0.07    -0.05   0.13   0.08
  16   1    -0.05   0.00  -0.04    -0.05   0.01  -0.04    -0.13   0.01   0.13
  17   6     0.04  -0.07  -0.02     0.04   0.06   0.01     0.25  -0.12  -0.06
  18   1     0.00  -0.14  -0.03     0.01   0.02   0.00     0.11   0.20  -0.02
  19   1    -0.08   0.04  -0.02     0.02   0.01   0.01     0.28  -0.19  -0.00
  20   1     0.11   0.02   0.03     0.01   0.02  -0.00    -0.14  -0.15  -0.01
  21   1     0.03   0.02  -0.02     0.01  -0.05  -0.02    -0.03  -0.07   0.00
  22   6    -0.01  -0.01   0.03    -0.06   0.01   0.01     0.01   0.01  -0.01
  23   8    -0.00  -0.02   0.04     0.03   0.02   0.04    -0.01   0.02  -0.03
  24   7    -0.02   0.03   0.04    -0.08  -0.00  -0.02     0.02  -0.02  -0.02
  25   1    -0.01   0.01   0.02     0.09  -0.01   0.08    -0.01  -0.00  -0.02
  26   1    -0.01   0.01  -0.00     0.19   0.00   0.15    -0.02  -0.01  -0.02
  27   7    -0.00  -0.01   0.00     0.29  -0.04   0.17    -0.04   0.03  -0.01
  28   1     0.00  -0.00  -0.00    -0.66   0.04  -0.33     0.09  -0.00   0.05
  29   1     0.00  -0.01   0.00    -0.35   0.01  -0.21     0.04   0.01   0.03
  30   6     0.02   0.02   0.01     0.00   0.00   0.00     0.01   0.01   0.01
  31   8     0.02   0.02   0.01     0.01   0.00  -0.00     0.02   0.01   0.00
  32   7    -0.03  -0.01   0.04    -0.00   0.00  -0.00     0.01   0.03  -0.01
  33   1     0.03   0.02  -0.00     0.00   0.00  -0.00    -0.02  -0.00   0.01
  34   1     0.05   0.04  -0.03    -0.00  -0.00  -0.00    -0.05  -0.03   0.03
  35   7    -0.01   0.01   0.01    -0.00  -0.00   0.00     0.01  -0.00   0.01
  36   1     0.02   0.01  -0.00     0.01  -0.00  -0.00     0.01  -0.00  -0.00
  37   1     0.02   0.02  -0.01     0.01  -0.00   0.00     0.01   0.00   0.00
  38   6     0.01   0.00  -0.01    -0.01   0.00   0.00     0.00  -0.01  -0.00
  39   8     0.01  -0.00  -0.01    -0.01  -0.03  -0.00    -0.00  -0.01  -0.00
  40   7     0.02  -0.02  -0.00    -0.00   0.01  -0.00    -0.00   0.00  -0.01
  41   1     0.00  -0.01   0.00     0.01   0.05  -0.01    -0.00  -0.00  -0.00
  42   1     0.01  -0.01  -0.00    -0.04  -0.03  -0.01     0.00   0.01   0.00
  43   7     0.01   0.01  -0.02    -0.00   0.01   0.01     0.00   0.00  -0.00
  44   1     0.01   0.02  -0.01     0.00   0.02   0.00     0.00  -0.00  -0.00
  45   1    -0.01   0.00  -0.01    -0.00   0.00   0.00    -0.00  -0.00  -0.00
  46   6    -0.01  -0.03   0.04     0.00  -0.00   0.00    -0.00   0.00  -0.00
  47   8    -0.04   0.00  -0.02     0.01  -0.01   0.00    -0.00   0.00  -0.01
  48   7    -0.09   0.07  -0.33     0.00  -0.00  -0.01    -0.00  -0.00  -0.00
  49   1     0.10  -0.10   0.42     0.00  -0.00   0.00    -0.00  -0.00   0.00
  50   1     0.17  -0.21   0.66     0.00   0.00  -0.00     0.00  -0.00   0.01
  51   7     0.01  -0.01   0.03    -0.00  -0.00  -0.02    -0.00  -0.00   0.00
  52   1    -0.05   0.01  -0.16     0.02  -0.01   0.04    -0.00   0.00  -0.01
  53   1    -0.02   0.01  -0.08     0.01   0.01   0.02    -0.00   0.00  -0.01
                     31                     32                     33
                        a                      a                      a 
 Frequencies --   317.0278               318.7451               351.0975
 Red. masses --     3.2898                 4.2743                 4.2801
 Frc consts  --     0.0000                 0.0000                 0.0000
 IR Inten    --   144.5861                41.3354                 2.8133
 Raman Activ --     0.0000                 0.0000                 0.0000
 Depolar     --     0.0000                 0.0000                 0.0000
 Atom AN      X      Y      Z        X      Y      Z        X      Y      Z
   1   8     0.07   0.06  -0.08    -0.17  -0.13   0.16     0.12   0.29  -0.07
   2   6    -0.02   0.04   0.13     0.02  -0.09  -0.22     0.03   0.06   0.16
   3   1    -0.06   0.06   0.04     0.10  -0.10  -0.08    -0.05   0.09   0.06
   4   1     0.01  -0.02   0.10    -0.02   0.03  -0.18     0.00  -0.05   0.13
   5   6     0.01  -0.01  -0.02     0.02  -0.02   0.03    -0.02  -0.03  -0.16
   6   1    -0.01  -0.02  -0.01     0.03   0.03   0.02    -0.12  -0.04  -0.06
   7   1     0.00   0.01  -0.01    -0.00  -0.04   0.03     0.03   0.05  -0.14
   8   7    -0.01  -0.01  -0.04     0.06   0.01   0.05    -0.03  -0.10  -0.06
   9   6    -0.02   0.08   0.01     0.09  -0.14  -0.05    -0.12  -0.03   0.12
  10   1    -0.02  -0.03  -0.01     0.06   0.09   0.01    -0.07   0.16   0.05
  11   1     0.04   0.06  -0.02    -0.08  -0.13   0.06    -0.08  -0.10   0.16
  12   1    -0.04   0.05   0.05     0.10  -0.11  -0.13     0.03  -0.07  -0.07
  13   6    -0.01  -0.01  -0.02    -0.03   0.07   0.05     0.11  -0.19  -0.01
  14   1    -0.12   0.06  -0.01     0.27  -0.13   0.04     0.30  -0.19   0.02
  15   1     0.06  -0.06  -0.12    -0.16   0.17   0.29    -0.10   0.02   0.25
  16   1     0.05  -0.02   0.12    -0.18   0.04  -0.27    -0.06  -0.00  -0.25
  17   6     0.01  -0.12  -0.05     0.03   0.21   0.08    -0.06  -0.02  -0.05
  18   1     0.01   0.03  -0.01    -0.00  -0.03   0.02     0.00   0.32   0.04
  19   1     0.07  -0.08  -0.03    -0.08   0.13   0.05     0.23  -0.18   0.02
  20   1    -0.07  -0.08  -0.01     0.11   0.13   0.00    -0.29  -0.12  -0.11
  21   1     0.05   0.02  -0.02    -0.10  -0.04   0.04     0.08   0.05  -0.02
  22   6    -0.01  -0.01   0.01     0.02   0.02  -0.02    -0.01  -0.01   0.01
  23   8    -0.01  -0.01   0.02     0.01   0.03  -0.04    -0.01  -0.01   0.01
  24   7    -0.01   0.02   0.02     0.03  -0.04  -0.04    -0.00   0.02   0.03
  25   1     0.00   0.01   0.02    -0.01  -0.01  -0.04    -0.01   0.01   0.01
  26   1     0.01   0.01   0.01    -0.03  -0.02  -0.03    -0.02   0.01  -0.02
  27   7     0.03  -0.02   0.01    -0.06   0.04  -0.03     0.00  -0.01   0.01
  28   1    -0.05   0.00  -0.03     0.13  -0.00   0.07     0.01  -0.00   0.01
  29   1    -0.02  -0.00  -0.02     0.06   0.01   0.04    -0.00  -0.00   0.00
  30   6     0.02   0.03  -0.02     0.01   0.02   0.00     0.00   0.01  -0.00
  31   8     0.00   0.02   0.00    -0.00   0.02   0.01     0.01   0.01  -0.01
  32   7    -0.24  -0.18   0.14    -0.12  -0.07   0.07     0.00   0.01  -0.00
  33   1     0.27   0.16  -0.12     0.12   0.08  -0.05    -0.00  -0.00   0.00
  34   1     0.55   0.35  -0.34     0.26   0.16  -0.16    -0.03  -0.01   0.02
  35   7     0.02   0.01  -0.02     0.02   0.00   0.00    -0.00  -0.00   0.00
  36   1    -0.17  -0.05   0.06    -0.08  -0.02   0.03     0.01   0.00  -0.01
  37   1    -0.05  -0.02   0.01    -0.02  -0.01   0.01     0.01  -0.00   0.00
  38   6     0.00  -0.00  -0.00    -0.01  -0.00   0.00    -0.00   0.01   0.00
  39   8    -0.00  -0.01  -0.00    -0.01   0.00   0.00     0.00   0.00   0.00
  40   7     0.00   0.00   0.00    -0.00   0.01   0.00    -0.00  -0.00   0.00
  41   1     0.00   0.00   0.00    -0.00  -0.01   0.00    -0.00  -0.01   0.00
  42   1    -0.00  -0.00  -0.00     0.01   0.01   0.00     0.01   0.00   0.00
  43   7     0.00   0.00   0.00    -0.00   0.01  -0.01    -0.00  -0.00  -0.00
  44   1    -0.00  -0.01   0.00    -0.00  -0.01  -0.00     0.00   0.00  -0.00
  45   1     0.00  -0.00   0.00    -0.00  -0.00  -0.00    -0.00   0.00  -0.00
  46   6     0.01   0.00   0.00    -0.00   0.00  -0.01    -0.00  -0.00   0.00
  47   8     0.01   0.00   0.01     0.00  -0.01  -0.01     0.00  -0.00   0.01
  48   7     0.01  -0.00   0.02     0.00   0.00   0.02    -0.00   0.00  -0.00
  49   1    -0.01   0.01  -0.03    -0.00   0.01  -0.02     0.00  -0.00   0.00
  50   1    -0.01   0.02  -0.06    -0.01   0.01  -0.04     0.00  -0.00   0.01
  51   7    -0.00   0.00  -0.01    -0.00  -0.00   0.00    -0.00   0.00  -0.01
  52   1     0.01  -0.00   0.04    -0.00  -0.00  -0.00     0.00  -0.00   0.01
  53   1     0.00  -0.00   0.02    -0.00   0.00  -0.00     0.00  -0.00   0.01
                     34                     35                     36
                        a                      a                      a 
 Frequencies --   367.5877               388.1352               400.4969
 Red. masses --     5.4344                 3.7109                 2.5064
 Frc consts  --     0.0000                 0.0000                 0.0000
 IR Inten    --     1.4141                11.0895                38.0826
 Raman Activ --     0.0000                 0.0000                 0.0000
 Depolar     --     0.0000                 0.0000                 0.0000
 Atom AN      X      Y      Z        X      Y      Z        X      Y      Z
   1   8    -0.01  -0.00  -0.03    -0.06   0.09   0.05    -0.00   0.01  -0.01
   2   6    -0.04   0.17  -0.00    -0.00   0.07  -0.02    -0.01   0.02   0.00
   3   1    -0.03   0.15   0.02     0.00   0.07   0.01    -0.01   0.01   0.00
   4   1    -0.01  -0.00   0.08    -0.02  -0.01   0.01    -0.00  -0.00   0.01
   5   6    -0.04   0.09  -0.30     0.04   0.02  -0.15     0.01   0.01  -0.01
   6   1    -0.12   0.03  -0.09    -0.06   0.03  -0.04     0.00   0.01  -0.00
   7   1     0.03   0.03  -0.19     0.04  -0.01  -0.11     0.00  -0.00  -0.00
   8   7     0.05  -0.02  -0.02     0.10  -0.05   0.03     0.01  -0.01  -0.00
   9   6    -0.01  -0.37   0.01     0.06  -0.31   0.03     0.00  -0.03   0.01
  10   1    -0.05  -0.46  -0.05     0.02   0.25   0.06    -0.00   0.02   0.01
  11   1     0.08   0.05  -0.24    -0.18  -0.30   0.22    -0.01  -0.02   0.02
  12   1    -0.06  -0.01   0.32     0.21  -0.27  -0.26     0.01  -0.02  -0.02
  13   6     0.16  -0.05   0.26     0.07  -0.05   0.06     0.01  -0.01  -0.00
  14   1     0.13   0.01   0.09    -0.22   0.14  -0.00    -0.00  -0.00  -0.00
  15   1     0.00  -0.06   0.15     0.15  -0.14  -0.23     0.01  -0.01  -0.01
  16   1     0.04  -0.01   0.05     0.14  -0.05   0.28     0.01  -0.00   0.00
  17   6    -0.07   0.17   0.00    -0.16   0.17   0.03    -0.01  -0.00  -0.00
  18   1    -0.04  -0.03   0.02    -0.08   0.04   0.07    -0.01   0.01   0.01
  19   1    -0.12   0.13   0.04    -0.09   0.09   0.02    -0.00  -0.00  -0.00
  20   1     0.07   0.12  -0.05    -0.04   0.09  -0.07    -0.01  -0.00  -0.01
  21   1    -0.01  -0.01  -0.01    -0.01  -0.04  -0.01    -0.01   0.02   0.00
  22   6    -0.00  -0.01   0.00    -0.00   0.01  -0.01     0.06   0.00   0.04
  23   8    -0.00  -0.00   0.00    -0.00   0.01  -0.01     0.03  -0.02   0.04
  24   7    -0.00   0.01   0.01     0.02  -0.01   0.00    -0.20  -0.00  -0.16
  25   1    -0.00   0.00   0.01    -0.00  -0.00  -0.02     0.16  -0.02   0.13
  26   1     0.00   0.01   0.00    -0.04  -0.01  -0.02     0.36   0.02   0.26
  27   7     0.01  -0.01   0.01    -0.00   0.02   0.01    -0.09   0.02  -0.05
  28   1    -0.03  -0.00  -0.01     0.02   0.00   0.02     0.16   0.00   0.07
  29   1    -0.01  -0.00  -0.00    -0.01   0.00  -0.01     0.07  -0.01   0.04
  30   6    -0.00   0.00   0.02     0.02   0.01  -0.01    -0.00   0.00  -0.00
  31   8    -0.01  -0.01   0.02     0.02   0.01  -0.02    -0.00   0.00  -0.00
  32   7    -0.02   0.02  -0.01    -0.04   0.00   0.00     0.00   0.00   0.00
  33   1    -0.01   0.03  -0.00    -0.00   0.02  -0.00     0.00  -0.00   0.00
  34   1     0.02   0.01  -0.03     0.02   0.01  -0.03     0.00   0.00  -0.00
  35   7     0.01   0.01   0.02    -0.04   0.03   0.02     0.01   0.00  -0.00
  36   1    -0.01   0.00   0.01     0.07   0.03  -0.03    -0.02  -0.00   0.01
  37   1    -0.00   0.00   0.00     0.01   0.01   0.01    -0.00  -0.00   0.00
  38   6     0.00   0.02  -0.01     0.00  -0.01   0.00     0.03  -0.02   0.00
  39   8    -0.01   0.01  -0.01     0.01  -0.01   0.00    -0.07  -0.04   0.04
  40   7     0.01  -0.01  -0.00    -0.00   0.01  -0.01     0.08  -0.01   0.07
  41   1     0.00  -0.01   0.00    -0.00  -0.01   0.00     0.09   0.43  -0.16
  42   1     0.01  -0.01  -0.00     0.01   0.02   0.01    -0.38  -0.43  -0.11
  43   7    -0.01  -0.02  -0.00     0.01   0.01   0.01     0.05   0.02  -0.03
  44   1     0.01   0.05  -0.00    -0.00  -0.02   0.00     0.05   0.15  -0.02
  45   1     0.01   0.01   0.01    -0.00  -0.01   0.00     0.00  -0.01  -0.01
  46   6     0.01   0.01  -0.00    -0.01   0.00   0.01    -0.01   0.00  -0.02
  47   8     0.00   0.01  -0.00    -0.00  -0.01   0.00     0.00  -0.00  -0.01
  48   7     0.00  -0.01  -0.01    -0.01  -0.00   0.00    -0.00  -0.01   0.03
  49   1    -0.00  -0.00  -0.00     0.00  -0.00   0.01    -0.01   0.00  -0.01
  50   1     0.00  -0.01  -0.00    -0.01   0.00  -0.01    -0.01   0.00  -0.02
  51   7    -0.00  -0.00   0.01     0.00   0.01  -0.01     0.02   0.00   0.05
  52   1     0.00   0.00   0.01     0.01  -0.01   0.02    -0.05   0.02  -0.14
  53   1    -0.01  -0.00  -0.01     0.01   0.01   0.01    -0.01  -0.00  -0.02
                     37                     38                     39
                        a                      a                      a 
 Frequencies --   410.3472               423.7038               430.1615
 Red. masses --     3.1128                 2.6036                 8.6417
 Frc consts  --     0.0000                 0.0000                 0.0000
 IR Inten    --   179.9941                34.5500                 4.0449
 Raman Activ --     0.0000                 0.0000                 0.0000
 Depolar     --     0.0000                 0.0000                 0.0000
 Atom AN      X      Y      Z        X      Y      Z        X      Y      Z
   1   8    -0.00  -0.01  -0.01    -0.01  -0.00  -0.02     0.12   0.20  -0.00
   2   6    -0.00   0.00  -0.00    -0.02   0.03  -0.00     0.11  -0.11   0.01
   3   1    -0.00   0.01  -0.00    -0.01   0.02   0.00     0.03  -0.04  -0.00
   4   1    -0.00  -0.00   0.00    -0.00   0.00   0.01     0.02  -0.03  -0.02
   5   6     0.01   0.00  -0.01     0.02   0.01  -0.00    -0.11  -0.07  -0.03
   6   1     0.01  -0.00  -0.00     0.02   0.00   0.00    -0.08  -0.03  -0.01
   7   1     0.00  -0.00   0.00     0.00  -0.01   0.01    -0.02   0.05  -0.04
   8   7     0.01   0.01  -0.02     0.03   0.01  -0.01    -0.28  -0.18  -0.02
   9   6    -0.01  -0.01   0.02    -0.00  -0.03   0.03    -0.09   0.10  -0.35
  10   1    -0.01  -0.03  -0.00    -0.02  -0.00   0.01     0.09   0.06  -0.08
  11   1     0.01   0.02  -0.02    -0.01  -0.02   0.02    -0.02   0.04  -0.11
  12   1    -0.01   0.01   0.04     0.01  -0.01   0.01    -0.08   0.05  -0.19
  13   6     0.01   0.01   0.00     0.03   0.01  -0.01    -0.15  -0.24   0.24
  14   1     0.02   0.00   0.00     0.01   0.01  -0.00    -0.05   0.02   0.08
  15   1    -0.01   0.01   0.02     0.01   0.00  -0.00    -0.04  -0.15   0.05
  16   1    -0.00   0.00  -0.01     0.01   0.00  -0.00    -0.00  -0.08   0.15
  17   6    -0.01  -0.00  -0.02    -0.02  -0.01  -0.02     0.31   0.23   0.13
  18   1    -0.01  -0.00  -0.00    -0.01  -0.00   0.01     0.17   0.09  -0.11
  19   1    -0.01  -0.00  -0.01    -0.01  -0.01  -0.02     0.09   0.10   0.23
  20   1    -0.00  -0.00  -0.01    -0.02  -0.01  -0.01     0.18   0.12   0.03
  21   1     0.00  -0.01  -0.00    -0.01   0.02   0.00     0.05   0.05  -0.00
  22   6     0.01  -0.00   0.02     0.05  -0.01   0.04    -0.00  -0.02   0.00
  23   8    -0.01  -0.01   0.03     0.03  -0.02   0.04     0.00  -0.01  -0.00
  24   7    -0.06  -0.01  -0.04    -0.08   0.01  -0.05    -0.01   0.02   0.01
  25   1     0.06  -0.02   0.03    -0.04   0.01   0.02     0.00   0.01   0.02
  26   1     0.08  -0.01   0.07     0.29   0.04   0.19    -0.01   0.01  -0.01
  27   7    -0.01   0.00  -0.02    -0.06  -0.01  -0.03    -0.00  -0.01   0.01
  28   1     0.06   0.01   0.02    -0.03  -0.00  -0.01    -0.00  -0.01   0.00
  29   1     0.01  -0.02  -0.00     0.05  -0.00   0.03    -0.00   0.00   0.00
  30   6     0.02  -0.01  -0.00    -0.02   0.01   0.00     0.01  -0.01   0.00
  31   8     0.02  -0.01   0.01    -0.02   0.01  -0.01     0.01  -0.01   0.00
  32   7    -0.02  -0.01  -0.01     0.02   0.01   0.01    -0.01  -0.01  -0.01
  33   1    -0.01   0.01  -0.00    -0.00  -0.01   0.00    -0.00   0.01  -0.00
  34   1    -0.00  -0.00  -0.02     0.00   0.00   0.01     0.01   0.00  -0.02
  35   7    -0.06  -0.00   0.03     0.04  -0.00  -0.02    -0.02   0.01   0.01
  36   1     0.13   0.04  -0.05    -0.11  -0.03   0.04     0.05   0.02  -0.02
  37   1     0.02   0.02  -0.01    -0.01  -0.01   0.00    -0.00   0.00   0.00
  38   6    -0.03  -0.13   0.05    -0.04  -0.01   0.01     0.00  -0.01   0.01
  39   8    -0.01  -0.08   0.05     0.04  -0.01  -0.03     0.00  -0.01   0.01
  40   7     0.00   0.10  -0.02    -0.03   0.01  -0.03    -0.00   0.01  -0.01
  41   1     0.02   0.15  -0.04    -0.04  -0.17   0.09     0.00   0.02  -0.01
  42   1    -0.08   0.06   0.03     0.20   0.23   0.06    -0.01  -0.00   0.00
  43   7     0.12   0.26  -0.09    -0.01   0.07  -0.00     0.01   0.02  -0.01
  44   1    -0.23  -0.77   0.03    -0.10  -0.28   0.02    -0.01  -0.06   0.00
  45   1     0.00  -0.05  -0.02    -0.00  -0.00   0.01    -0.00  -0.01  -0.00
  46   6     0.02   0.03   0.05    -0.03   0.01  -0.08    -0.00   0.00  -0.01
  47   8     0.01   0.04   0.02    -0.01  -0.01  -0.07    -0.00  -0.00  -0.00
  48   7    -0.01  -0.01  -0.07     0.03  -0.03   0.14     0.00  -0.01   0.02
  49   1    -0.01  -0.02   0.03    -0.04   0.03  -0.12    -0.00   0.00  -0.01
  50   1     0.03  -0.04   0.03    -0.01   0.01  -0.02    -0.01   0.01  -0.01
  51   7    -0.03   0.03  -0.10     0.10  -0.00   0.20     0.02  -0.00   0.03
  52   1     0.11  -0.04   0.28    -0.26   0.12  -0.63    -0.04   0.02  -0.09
  53   1     0.01  -0.00   0.07    -0.01  -0.05  -0.01     0.00  -0.01   0.01
                     40                     41                     42
                        a                      a                      a 
 Frequencies --   432.1763               438.3867               464.3943
 Red. masses --     3.1014                 2.7740                 7.2781
 Frc consts  --     0.0000                 0.0000                 0.0000
 IR Inten    --   216.9157               348.7822                 6.5280
 Raman Activ --     0.0000                 0.0000                 0.0000
 Depolar     --     0.0000                 0.0000                 0.0000
 Atom AN      X      Y      Z        X      Y      Z        X      Y      Z
   1   8    -0.01  -0.03  -0.00    -0.01  -0.02   0.00    -0.02  -0.07   0.03
   2   6    -0.02   0.03   0.00    -0.01  -0.00  -0.00    -0.04   0.20  -0.01
   3   1    -0.00  -0.00  -0.00    -0.00  -0.00  -0.00     0.01   0.01  -0.01
   4   1     0.00   0.02  -0.00    -0.00   0.00  -0.00     0.02   0.10  -0.03
   5   6    -0.00   0.03   0.04     0.01  -0.00   0.00    -0.07   0.22   0.18
   6   1     0.02   0.01   0.01     0.01  -0.00   0.00     0.09   0.07   0.06
   7   1    -0.01   0.00   0.03     0.00  -0.01   0.01    -0.06   0.04   0.15
   8   7    -0.01   0.04  -0.00     0.03   0.02  -0.02    -0.17   0.15  -0.00
   9   6    -0.02   0.00   0.00    -0.00  -0.01   0.04    -0.15  -0.15  -0.13
  10   1    -0.01  -0.04  -0.01    -0.02  -0.02   0.01    -0.01  -0.02  -0.03
  11   1    -0.00   0.01  -0.02     0.00   0.00   0.01    -0.12  -0.09  -0.05
  12   1    -0.01   0.01   0.03    -0.00   0.00   0.03     0.04  -0.10  -0.07
  13   6     0.04   0.01  -0.02     0.02   0.03  -0.00     0.23  -0.10  -0.05
  14   1     0.04  -0.02  -0.01     0.01   0.01   0.00     0.10  -0.07  -0.01
  15   1    -0.00   0.01   0.02     0.00   0.01   0.00     0.05  -0.13   0.00
  16   1     0.01   0.01  -0.03    -0.00   0.01  -0.00     0.15   0.04  -0.04
  17   6     0.01  -0.05  -0.01    -0.02  -0.01  -0.03     0.11  -0.14  -0.01
  18   1     0.01  -0.02  -0.01    -0.01  -0.01   0.00     0.08  -0.04  -0.08
  19   1     0.01  -0.02  -0.02    -0.01  -0.00  -0.02     0.09  -0.09  -0.02
  20   1    -0.01  -0.03   0.02    -0.01  -0.00  -0.01     0.02  -0.09   0.09
  21   1    -0.01   0.00   0.00     0.00  -0.01   0.00    -0.02  -0.03   0.00
  22   6     0.00  -0.00   0.00    -0.06  -0.02  -0.05    -0.01   0.03   0.02
  23   8     0.00  -0.00   0.00    -0.03  -0.00  -0.06    -0.01   0.03   0.02
  24   7    -0.00   0.00  -0.00     0.12   0.06   0.12     0.01  -0.05   0.00
  25   1    -0.01   0.00  -0.00     0.10  -0.01   0.02     0.02  -0.02  -0.02
  26   1     0.03   0.01   0.02    -0.55  -0.04  -0.37    -0.03  -0.04  -0.00
  27   7    -0.01  -0.00  -0.01     0.12  -0.03   0.09     0.02   0.02  -0.03
  28   1    -0.01  -0.00  -0.00    -0.07  -0.01  -0.02     0.01   0.02  -0.03
  29   1     0.01   0.00   0.01    -0.11   0.01  -0.06    -0.00  -0.02  -0.02
  30   6     0.09  -0.01  -0.02    -0.01   0.00  -0.01     0.11  -0.09   0.08
  31   8     0.10   0.01   0.01    -0.00   0.01  -0.00     0.08  -0.18  -0.05
  32   7    -0.14  -0.10   0.04     0.00  -0.01   0.01    -0.07   0.07  -0.16
  33   1     0.08   0.06  -0.04     0.01  -0.01  -0.00    -0.33   0.09   0.09
  34   1     0.06   0.03  -0.08     0.01   0.01   0.01     0.04  -0.01  -0.28
  35   7    -0.28   0.01   0.09    -0.00  -0.01  -0.01    -0.01   0.17   0.16
  36   1     0.76   0.19  -0.35     0.00  -0.00  -0.01    -0.06   0.07   0.16
  37   1     0.02  -0.02   0.06    -0.00  -0.01   0.01    -0.02   0.11  -0.04
  38   6    -0.00   0.02  -0.01     0.03  -0.07   0.04    -0.01  -0.00  -0.00
  39   8     0.01   0.01  -0.02    -0.06  -0.03   0.08    -0.00   0.00   0.00
  40   7     0.01  -0.02   0.01     0.02   0.04   0.00     0.00   0.00   0.00
  41   1    -0.01  -0.04   0.02     0.05   0.26  -0.12     0.00   0.01   0.00
  42   1     0.04   0.00  -0.00    -0.24  -0.16  -0.03    -0.00  -0.00   0.00
  43   7    -0.02  -0.02   0.02     0.09   0.07  -0.06    -0.00  -0.00   0.00
  44   1     0.03   0.09  -0.00    -0.03  -0.16  -0.01     0.00   0.01  -0.00
  45   1    -0.01  -0.01   0.00     0.01  -0.03  -0.02     0.00   0.00   0.00
  46   6    -0.04  -0.00  -0.03    -0.02   0.02  -0.04     0.04   0.03   0.00
  47   8    -0.03  -0.01  -0.02     0.00  -0.01  -0.03     0.04   0.03   0.00
  48   7    -0.01  -0.01   0.04     0.01  -0.03   0.08     0.02  -0.06  -0.02
  49   1     0.04  -0.01   0.07    -0.04   0.01  -0.09    -0.04  -0.02  -0.02
  50   1    -0.05   0.05  -0.11     0.00  -0.00  -0.00     0.03  -0.04  -0.01
  51   7     0.06  -0.00   0.06     0.06   0.01   0.11    -0.07  -0.01   0.02
  52   1    -0.03   0.01  -0.13    -0.17   0.08  -0.39    -0.05   0.03   0.00
  53   1     0.01   0.01  -0.02     0.00  -0.04   0.03    -0.03  -0.04   0.00
                     43                     44                     45
                        a                      a                      a 
 Frequencies --   469.8903               471.0825               472.0987
 Red. masses --     6.0275                 7.4965                 8.2295
 Frc consts  --     0.0000                 0.0000                 0.0000
 IR Inten    --     3.1705                 4.4466                25.4086
 Raman Activ --     0.0000                 0.0000                 0.0000
 Depolar     --     0.0000                 0.0000                 0.0000
 Atom AN      X      Y      Z        X      Y      Z        X      Y      Z
   1   8     0.01   0.03  -0.02    -0.01  -0.02   0.01     0.02   0.01  -0.04
   2   6     0.01  -0.01  -0.00    -0.01  -0.06   0.00    -0.01   0.06  -0.01
   3   1     0.00   0.02   0.00    -0.00  -0.03  -0.00    -0.01   0.03   0.00
   4   1    -0.00  -0.01   0.01    -0.00  -0.01  -0.01     0.00   0.01   0.01
   5   6    -0.05  -0.02  -0.11     0.10  -0.05   0.10    -0.03   0.04  -0.02
   6   1    -0.13   0.01  -0.04     0.16  -0.03   0.03    -0.04   0.02  -0.01
   7   1     0.03   0.01  -0.15    -0.03  -0.03   0.16     0.00   0.01  -0.04
   8   7     0.07  -0.07   0.17    -0.04   0.05  -0.24    -0.01  -0.02   0.08
   9   6     0.19   0.07  -0.03    -0.22  -0.03   0.08     0.06  -0.01  -0.05
  10   1     0.11  -0.00  -0.00    -0.15   0.03   0.01     0.06  -0.02  -0.01
  11   1     0.06   0.04  -0.05    -0.06  -0.04   0.10     0.01   0.01  -0.04
  12   1     0.01   0.05  -0.03    -0.02  -0.04   0.05     0.00   0.00  -0.03
  13   6    -0.13  -0.00  -0.12     0.10   0.03   0.18    -0.01  -0.05  -0.06
  14   1    -0.08  -0.06  -0.05     0.07   0.11   0.07    -0.01  -0.05  -0.02
  15   1    -0.02   0.09  -0.06     0.00  -0.08   0.09     0.00   0.00  -0.03
  16   1    -0.07  -0.00  -0.07     0.04  -0.01   0.11     0.00   0.00  -0.04
  17   6    -0.07  -0.03   0.18     0.07   0.08  -0.25    -0.00  -0.04   0.09
  18   1    -0.04  -0.00   0.08     0.03   0.01  -0.09     0.00  -0.00   0.02
  19   1    -0.03  -0.00   0.04     0.02   0.03  -0.04     0.01  -0.02   0.02
  20   1    -0.03   0.00   0.02     0.04   0.03  -0.05    -0.01  -0.01   0.03
  21   1     0.01   0.00  -0.01    -0.01   0.01   0.01     0.00  -0.01  -0.01
  22   6    -0.00   0.01   0.01    -0.03   0.07   0.07    -0.11   0.16   0.21
  23   8     0.00   0.02   0.01    -0.02   0.09   0.06    -0.07   0.27   0.15
  24   7    -0.00  -0.03   0.00     0.00  -0.15   0.03    -0.06  -0.38   0.10
  25   1     0.00  -0.01  -0.01    -0.04  -0.05  -0.09     0.09  -0.16  -0.12
  26   1    -0.00  -0.02   0.01     0.02  -0.08   0.07    -0.12  -0.24   0.11
  27   7     0.01   0.00  -0.02     0.04   0.02  -0.12     0.17   0.03  -0.29
  28   1     0.00   0.01  -0.02     0.03   0.06  -0.09     0.22   0.19  -0.20
  29   1     0.01  -0.01  -0.00     0.05  -0.08  -0.04    -0.05  -0.25  -0.23
  30   6     0.04  -0.06   0.02    -0.05   0.03  -0.04    -0.03   0.02  -0.01
  31   8     0.05  -0.07   0.00    -0.03   0.07   0.03    -0.03   0.04   0.01
  32   7    -0.07  -0.01  -0.07     0.00  -0.04   0.06     0.01  -0.00   0.03
  33   1     0.01   0.08  -0.03     0.21  -0.01  -0.07     0.09  -0.01  -0.03
  34   1    -0.03  -0.03  -0.06    -0.04  -0.01   0.13    -0.01   0.00   0.07
  35   7    -0.02   0.08   0.06     0.00  -0.05  -0.07     0.02  -0.03  -0.04
  36   1     0.11   0.06   0.00     0.05  -0.02  -0.07    -0.02  -0.02  -0.02
  37   1    -0.05   0.02   0.01    -0.00  -0.05   0.02     0.00  -0.02   0.01
  38   6    -0.02   0.01  -0.03     0.07  -0.01   0.10    -0.03  -0.00  -0.06
  39   8    -0.01   0.01  -0.03    -0.01   0.02   0.15    -0.01   0.01  -0.07
  40   7     0.03  -0.01   0.02    -0.15   0.05  -0.07     0.08  -0.01   0.03
  41   1     0.01   0.00   0.03    -0.03  -0.04  -0.11     0.02   0.03   0.06
  42   1     0.02  -0.03  -0.01    -0.07   0.10   0.04     0.04  -0.03  -0.01
  43   7    -0.03  -0.00   0.06     0.08  -0.09  -0.12    -0.04   0.04   0.08
  44   1    -0.02   0.05   0.02     0.12   0.07  -0.07    -0.06  -0.01   0.04
  45   1     0.01  -0.01   0.03    -0.01   0.02  -0.08     0.01  -0.01   0.05
  46   6     0.12   0.13   0.03     0.07   0.09   0.03    -0.04  -0.05  -0.01
  47   8     0.19   0.10   0.00     0.14   0.05   0.01    -0.06  -0.05  -0.01
  48   7     0.05  -0.20  -0.04     0.01  -0.13  -0.03    -0.00   0.07   0.03
  49   1    -0.30  -0.04  -0.36    -0.18  -0.04  -0.16     0.06   0.04   0.01
  50   1     0.22  -0.27   0.17     0.12  -0.16   0.07    -0.05   0.06   0.01
  51   7    -0.27   0.05   0.01    -0.16   0.05   0.02     0.10  -0.02  -0.02
  52   1    -0.17   0.10   0.04    -0.08   0.06   0.06     0.04  -0.03  -0.07
  53   1    -0.09  -0.13   0.09    -0.06  -0.06   0.03     0.04   0.04   0.00
                     46                     47                     48
                        a                      a                      a 
 Frequencies --   476.1540               480.2913               484.1775
 Red. masses --     4.6694                 5.3024                 7.3347
 Frc consts  --     0.0000                 0.0000                 0.0000
 IR Inten    --    10.8908                 2.5839                14.7571
 Raman Activ --     0.0000                 0.0000                 0.0000
 Depolar     --     0.0000                 0.0000                 0.0000
 Atom AN      X      Y      Z        X      Y      Z        X      Y      Z
   1   8     0.02   0.05  -0.03     0.00   0.01   0.00     0.01   0.03  -0.02
   2   6     0.03  -0.16   0.01     0.01  -0.09   0.01     0.02  -0.11   0.01
   3   1    -0.01  -0.03   0.01    -0.00  -0.02   0.00    -0.01  -0.02   0.00
   4   1    -0.01  -0.07   0.02    -0.01  -0.03   0.00    -0.01  -0.05   0.01
   5   6     0.07  -0.16  -0.09     0.06  -0.08   0.01     0.05  -0.11  -0.04
   6   1    -0.02  -0.06  -0.03     0.05  -0.03   0.00    -0.00  -0.04  -0.01
   7   1     0.03  -0.03  -0.06     0.00  -0.02   0.04     0.02  -0.02  -0.02
   8   7     0.11  -0.08  -0.05     0.02  -0.01  -0.11     0.07  -0.04  -0.05
   9   6     0.04   0.12   0.13    -0.08   0.04   0.09     0.00   0.08   0.10
  10   1    -0.04   0.04   0.03    -0.07   0.02   0.02    -0.04   0.03   0.02
  11   1     0.07   0.06   0.06     0.01   0.01   0.05     0.04   0.03   0.05
  12   1    -0.03   0.07   0.06    -0.02   0.02   0.05    -0.02   0.04   0.05
  13   6    -0.13   0.10   0.06    -0.01   0.06   0.10    -0.07   0.07   0.06
  14   1    -0.04   0.07   0.02     0.01   0.07   0.04    -0.02   0.06   0.02
  15   1    -0.04   0.08   0.02    -0.01   0.00   0.04    -0.02   0.05   0.02
  16   1    -0.10  -0.02   0.04    -0.02  -0.01   0.06    -0.06  -0.01   0.03
  17   6    -0.06   0.10  -0.06    -0.00   0.07  -0.12    -0.03   0.07  -0.06
  18   1    -0.05   0.03   0.03    -0.01   0.01  -0.02    -0.03   0.02   0.01
  19   1    -0.05   0.05  -0.00    -0.01   0.03  -0.02    -0.03   0.04  -0.01
  20   1    -0.01   0.06  -0.07     0.01   0.03  -0.05    -0.01   0.04  -0.05
  21   1     0.01   0.04   0.00     0.01  -0.00  -0.00     0.01   0.03   0.00
  22   6    -0.03   0.04   0.06    -0.00  -0.00  -0.01    -0.01   0.01   0.02
  23   8    -0.01   0.08   0.04    -0.00  -0.01  -0.00    -0.01   0.03   0.01
  24   7    -0.01  -0.10   0.04    -0.01   0.01  -0.02    -0.00  -0.03   0.02
  25   1    -0.02  -0.03  -0.04     0.02  -0.00   0.01    -0.01  -0.01  -0.01
  26   1    -0.01  -0.05   0.04     0.01   0.00   0.01    -0.00  -0.02   0.01
  27   7     0.04  -0.00  -0.09    -0.00   0.01   0.02     0.01  -0.01  -0.03
  28   1     0.03   0.05  -0.07     0.05  -0.00   0.03     0.01   0.02  -0.03
  29   1     0.03  -0.07  -0.04    -0.06   0.00  -0.03     0.02  -0.03  -0.01
  30   6     0.08   0.00  -0.01     0.04  -0.02   0.01     0.08  -0.20   0.11
  31   8     0.06  -0.04  -0.07     0.05  -0.05  -0.04     0.09  -0.26   0.05
  32   7     0.07   0.03  -0.02    -0.01   0.01  -0.04    -0.21  -0.01  -0.27
  33   1    -0.55  -0.13   0.24    -0.21  -0.01   0.08     0.25   0.32  -0.21
  34   1     0.18   0.07  -0.26     0.06   0.02  -0.13    -0.24  -0.17  -0.08
  35   7    -0.10  -0.01   0.09    -0.05   0.05   0.07     0.07   0.34   0.13
  36   1     0.01   0.01   0.02     0.07   0.04  -0.00    -0.02   0.15   0.22
[...]
  44   1    -0.00   0.00  -0.00    -0.01   0.00  -0.02     0.00  -0.00   0.01
  45   1    -0.06   0.02   0.07    -0.08   0.02   0.10     0.05  -0.01  -0.06
  46   6    -0.00  -0.00   0.00     0.01   0.01  -0.00    -0.01   0.01   0.00
  47   8     0.00   0.00  -0.00    -0.01  -0.01  -0.00    -0.00  -0.00   0.00
  48   7    -0.00   0.00   0.00    -0.00  -0.00   0.00     0.00   0.00  -0.00
  49   1    -0.00  -0.00   0.00    -0.01   0.02   0.00     0.01  -0.02  -0.00
  50   1    -0.00  -0.00   0.00    -0.01  -0.01  -0.00     0.01   0.01   0.00
  51   7     0.01  -0.00  -0.00    -0.02   0.00   0.00    -0.20   0.10   0.06
  52   1     0.01   0.01  -0.00    -0.01  -0.01   0.00    -0.14  -0.14   0.03
  53   1    -0.06   0.01   0.02     0.09  -0.02  -0.02     0.88  -0.22  -0.24
                    142                    143                    144
                        a                      a                      a 
 Frequencies --  3444.1267              3486.5566              3494.2005
 Red. masses --     1.4749                 1.4634                 2.1393
 Frc consts  --     0.0000                 0.0000                 0.0000
 IR Inten    --     4.6805                30.7877                 4.6997
 Raman Activ --     0.0000                 0.0000                 0.0000
 Depolar     --     0.0000                 0.0000                 0.0000
 Atom AN      X      Y      Z        X      Y      Z        X      Y      Z
   1   8    -0.00   0.00  -0.00    -0.00  -0.00   0.00    -0.00  -0.00   0.00
   2   6     0.00  -0.00  -0.00     0.00   0.00   0.00     0.00   0.00  -0.00
   3   1    -0.00   0.00   0.00    -0.00   0.00   0.00    -0.00  -0.00   0.00
   4   1    -0.00   0.00   0.00    -0.00   0.00  -0.00    -0.00   0.00   0.00
   5   6     0.00   0.00  -0.00    -0.00  -0.00   0.00     0.00  -0.00   0.00
   6   1     0.00  -0.00   0.00    -0.00  -0.00  -0.00     0.00   0.00  -0.00
   7   1    -0.00   0.00  -0.00    -0.00  -0.00  -0.00    -0.00  -0.00   0.00
   8   7    -0.00   0.00   0.00    -0.00  -0.00   0.00    -0.00   0.00  -0.00
   9   6     0.00   0.00  -0.00    -0.00  -0.00   0.00    -0.00   0.00   0.00
  10   1    -0.00  -0.00   0.00     0.00  -0.00  -0.00     0.00  -0.00  -0.00
  11   1    -0.00   0.00  -0.00    -0.00  -0.00   0.00     0.00  -0.00   0.00
  12   1     0.00   0.00  -0.00     0.00   0.00  -0.00     0.00   0.00   0.00
  13   6     0.00   0.00  -0.00    -0.00   0.00   0.00    -0.00   0.00   0.00
  14   1    -0.00  -0.00   0.00     0.00  -0.00  -0.00     0.00  -0.00  -0.00
  15   1    -0.00   0.00  -0.00    -0.00   0.00  -0.00    -0.00  -0.00   0.00
  16   1     0.00  -0.00  -0.00     0.00  -0.00  -0.00     0.00  -0.00   0.00
  17   6     0.00  -0.00  -0.00     0.00   0.00  -0.00    -0.00   0.00   0.00
  18   1     0.00   0.00  -0.00    -0.00   0.00   0.00    -0.00   0.00  -0.00
  19   1    -0.00  -0.00  -0.00     0.00   0.00   0.00    -0.00  -0.00   0.00
  20   1    -0.00   0.00   0.00     0.00  -0.00   0.00     0.00  -0.00   0.00
  21   1    -0.00  -0.00   0.00     0.00   0.01  -0.02     0.00   0.00  -0.00
  22   6     0.00   0.00  -0.00    -0.00  -0.00   0.00     0.00   0.00   0.00
  23   8    -0.00   0.00   0.00    -0.00   0.00   0.00    -0.00  -0.00  -0.00
  24   7     0.01   0.01  -0.01    -0.00   0.01  -0.00    -0.00   0.00  -0.00
  25   1    -0.02  -0.06   0.01    -0.00  -0.02   0.00     0.00  -0.00   0.00
  26   1    -0.01   0.02   0.01     0.01  -0.02  -0.01     0.00  -0.00  -0.00
  27   7     0.00   0.00  -0.00    -0.06  -0.17   0.06    -0.00  -0.00   0.00
  28   1     0.00  -0.00  -0.00    -0.18   0.41   0.40    -0.00   0.00   0.00
  29   1    -0.00  -0.00   0.00     0.39   0.21  -0.64     0.00   0.00  -0.00
  30   6    -0.00   0.00   0.00     0.00   0.00  -0.00     0.00  -0.00  -0.00
  31   8     0.00  -0.00  -0.00    -0.00  -0.00   0.00    -0.00   0.00  -0.00
  32   7     0.00  -0.00  -0.00    -0.00   0.00   0.00     0.00  -0.00  -0.00
  33   1    -0.00  -0.00  -0.00    -0.00   0.00  -0.00     0.00  -0.00   0.01
  34   1    -0.00   0.00  -0.00     0.00  -0.00   0.00    -0.01   0.01  -0.00
  35   7     0.00  -0.00  -0.00     0.00   0.00   0.00    -0.00   0.00  -0.00
  36   1     0.00  -0.00   0.00    -0.00   0.00  -0.00     0.00  -0.00   0.00
  37   1    -0.00   0.00   0.00     0.00  -0.00  -0.00    -0.00  -0.00   0.00
  38   6    -0.00  -0.00   0.00    -0.00  -0.00   0.00     0.01  -0.00   0.00
  39   8    -0.00   0.00  -0.00     0.00   0.00   0.00    -0.00   0.00  -0.00
  40   7    -0.13  -0.06   0.13    -0.00   0.00  -0.00     0.21  -0.10   0.17
  41   1     0.66  -0.10   0.11     0.00  -0.00   0.00    -0.68   0.08  -0.09
  42   1    -0.19   0.32  -0.60     0.00  -0.00   0.00    -0.14   0.31  -0.57
  43   7     0.00  -0.00  -0.00    -0.00   0.00   0.00    -0.01   0.00  -0.02
  44   1     0.00  -0.00   0.01     0.00  -0.00   0.00     0.03  -0.00   0.07
  45   1    -0.00   0.00   0.00     0.00  -0.00  -0.00    -0.00   0.00   0.00
  46   6    -0.00  -0.00   0.00     0.00   0.00  -0.00     0.00   0.00   0.00
  47   8     0.00   0.00  -0.00    -0.00  -0.00   0.00    -0.00  -0.00  -0.00
  48   7     0.00  -0.00  -0.00    -0.00  -0.00   0.00     0.00  -0.00  -0.00
  49   1    -0.00   0.00   0.00     0.00  -0.00  -0.00    -0.00   0.00   0.00
  50   1    -0.00  -0.00   0.00     0.00   0.00   0.00    -0.00  -0.00  -0.00
  51   7     0.00  -0.00  -0.00    -0.00   0.00   0.00     0.00   0.00  -0.00
  52   1     0.00   0.00  -0.00    -0.01  -0.01   0.00    -0.00  -0.00   0.00
  53   1    -0.00   0.00   0.00     0.02  -0.01  -0.01     0.00  -0.00  -0.00
                    145                    146                    147
                        a                      a                      a 
 Frequencies --  3494.9569              3499.0692              3522.5244
 Red. masses --     1.4525                 1.4504                 1.9231
 Frc consts  --     0.0000                 0.0000                 0.0000
 IR Inten    --    17.6252                21.6075                13.9794
 Raman Activ --     0.0000                 0.0000                 0.0000
 Depolar     --     0.0000                 0.0000                 0.0000
 Atom AN      X      Y      Z        X      Y      Z        X      Y      Z
   1   8    -0.00   0.00   0.00     0.00  -0.00   0.00    -0.00   0.00  -0.00
   2   6     0.00  -0.00   0.00    -0.00   0.00  -0.00     0.00   0.00   0.00
   3   1    -0.00   0.00  -0.00     0.00   0.00   0.00    -0.00   0.00  -0.00
   4   1    -0.00   0.00   0.00     0.00  -0.00  -0.00     0.00  -0.00  -0.00
   5   6     0.00   0.00  -0.00    -0.00   0.00   0.00     0.00   0.00  -0.00
   6   1     0.00  -0.00  -0.00    -0.00   0.00   0.00     0.00  -0.00   0.00
   7   1    -0.00   0.00  -0.00     0.00  -0.00   0.00    -0.00  -0.00  -0.00
   8   7     0.00   0.00   0.00     0.00  -0.00   0.00     0.00  -0.00  -0.00
   9   6    -0.00   0.00   0.00    -0.00   0.00   0.00     0.00  -0.00  -0.00
  10   1    -0.00   0.00  -0.00    -0.00   0.00  -0.00     0.00  -0.00   0.00
  11   1     0.00  -0.00  -0.00     0.00  -0.00  -0.00    -0.00   0.00   0.00
  12   1     0.00   0.00  -0.00    -0.00   0.00  -0.00     0.00  -0.00  -0.00
  13   6    -0.00   0.00   0.00    -0.00   0.00   0.00     0.00   0.00  -0.00
  14   1     0.00   0.00  -0.00    -0.00   0.00  -0.00    -0.00  -0.00   0.00
  15   1    -0.00   0.00  -0.00     0.00   0.00   0.00    -0.00  -0.00  -0.00
  16   1     0.00  -0.00  -0.00     0.00  -0.00  -0.00    -0.00  -0.00  -0.00
  17   6    -0.00   0.00   0.00    -0.00   0.00  -0.00    -0.00   0.00   0.00
  18   1    -0.00   0.00  -0.00     0.00  -0.00   0.00     0.00  -0.00  -0.00
  19   1     0.00   0.00  -0.00     0.00   0.00  -0.00     0.00   0.00  -0.00
  20   1     0.00  -0.00   0.00     0.00  -0.00  -0.00    -0.00  -0.00  -0.00
  21   1     0.00   0.00  -0.00    -0.00   0.00   0.00     0.00  -0.00   0.00
  22   6     0.00  -0.00  -0.00    -0.00   0.00   0.00     0.00  -0.00  -0.00
  23   8    -0.00   0.00   0.00     0.00  -0.00  -0.00    -0.00   0.00   0.00
  24   7     0.00  -0.00  -0.00    -0.00  -0.00   0.00     0.00  -0.00  -0.00
  25   1    -0.00  -0.00   0.00     0.00   0.00  -0.00     0.00   0.00  -0.00
  26   1    -0.00   0.00   0.00     0.00  -0.00  -0.00    -0.00   0.00   0.00
  27   7    -0.00   0.00   0.00     0.00   0.00  -0.00    -0.00   0.00   0.00
  28   1    -0.00  -0.00  -0.00     0.00  -0.00  -0.00     0.00  -0.00  -0.00
  29   1     0.00   0.00  -0.00    -0.00  -0.00   0.00    -0.00  -0.00   0.00
  30   6     0.00  -0.00  -0.00     0.00  -0.00   0.00     0.00  -0.01  -0.00
  31   8    -0.00   0.00  -0.00    -0.00   0.00  -0.00    -0.00   0.00  -0.00
  32   7     0.05  -0.14  -0.11     0.00  -0.00  -0.00    -0.01   0.00  -0.02
  33   1     0.28  -0.01   0.60     0.00  -0.00   0.01     0.03   0.00   0.07
  34   1    -0.45   0.53  -0.19    -0.01   0.01  -0.00     0.01  -0.01   0.00
  35   7    -0.00   0.01   0.00    -0.00   0.00   0.00     0.10  -0.24   0.07
  36   1     0.01  -0.03   0.01    -0.00   0.00  -0.00    -0.34   0.81  -0.35
  37   1     0.00  -0.01  -0.01     0.00  -0.02  -0.01    -0.01   0.08   0.09
  38   6    -0.00   0.00  -0.00    -0.00   0.00   0.00     0.00  -0.00  -0.00
  39   8     0.00   0.00   0.00     0.00  -0.00  -0.00    -0.00   0.00   0.00
  40   7    -0.00   0.00  -0.00     0.00  -0.00   0.00    -0.00   0.00  -0.00
  41   1     0.01  -0.00   0.00    -0.00   0.00  -0.00     0.00  -0.00   0.00
  42   1     0.00  -0.00   0.01    -0.00   0.00  -0.00     0.00  -0.00   0.00
  43   7    -0.00   0.00   0.00     0.00  -0.00   0.00    -0.00   0.00  -0.01
  44   1    -0.00  -0.00  -0.00    -0.00   0.00  -0.01     0.01  -0.00   0.04
  45   1     0.00  -0.00  -0.00    -0.01   0.00   0.01     0.00  -0.00  -0.00
  46   6     0.00  -0.00  -0.00    -0.00  -0.00  -0.00    -0.00  -0.00   0.00
  47   8    -0.00   0.00   0.00     0.00   0.00   0.00     0.00   0.00   0.00
  48   7     0.00  -0.00  -0.00    -0.18   0.03   0.04     0.00  -0.00  -0.00
  49   1    -0.00   0.01   0.00     0.17  -0.63  -0.19    -0.00   0.00   0.00
  50   1    -0.01  -0.01  -0.00     0.49   0.51   0.03     0.00   0.00   0.00
  51   7    -0.00   0.00   0.00     0.01   0.00  -0.00     0.00   0.00  -0.00
  52   1    -0.00  -0.00  -0.00    -0.02  -0.03   0.01    -0.01  -0.01   0.00
  53   1     0.00  -0.00  -0.00    -0.02   0.01   0.01     0.00  -0.00  -0.00
                    148                    149                    150
                        a                      a                      a 
 Frequencies --  3525.4626              3527.9189              3531.1625
 Red. masses --     1.9359                 1.8955                 1.9582
 Frc consts  --     0.0000                 0.0000                 0.0000
 IR Inten    --    17.8612                10.6781                18.3446
 Raman Activ --     0.0000                 0.0000                 0.0000
 Depolar     --     0.0000                 0.0000                 0.0000
 Atom AN      X      Y      Z        X      Y      Z        X      Y      Z
   1   8     0.00  -0.00   0.00    -0.00   0.00  -0.00     0.00  -0.00   0.00
   2   6    -0.00  -0.00   0.00     0.00   0.00  -0.00    -0.00   0.00  -0.00
   3   1     0.00  -0.00  -0.00    -0.00  -0.00   0.00     0.00  -0.00   0.00
   4   1     0.00  -0.00   0.00    -0.00   0.00   0.00    -0.00   0.00   0.00
   5   6     0.00   0.00  -0.00     0.00   0.00  -0.00     0.00  -0.00   0.00
   6   1    -0.00  -0.00   0.00    -0.00   0.00   0.00    -0.00  -0.00  -0.00
   7   1     0.00  -0.00   0.00    -0.00  -0.00  -0.00     0.00   0.00   0.00
   8   7    -0.00   0.00   0.00    -0.00   0.00   0.00     0.00   0.00  -0.00
   9   6    -0.00  -0.00  -0.00    -0.00   0.00   0.00     0.00   0.00   0.00
  10   1    -0.00  -0.00   0.00     0.00   0.00  -0.00     0.00  -0.00  -0.00
  11   1     0.00  -0.00   0.00     0.00  -0.00   0.00    -0.00   0.00   0.00
  12   1     0.00   0.00  -0.00     0.00  -0.00   0.00    -0.00  -0.00  -0.00
  13   6     0.00  -0.00  -0.00    -0.00   0.00   0.00     0.00   0.00   0.00
  14   1    -0.00  -0.00   0.00    -0.00  -0.00  -0.00     0.00  -0.00  -0.00
  15   1     0.00  -0.00   0.00    -0.00  -0.00   0.00    -0.00   0.00  -0.00
  16   1    -0.00   0.00   0.00     0.00  -0.00  -0.00     0.00   0.00   0.00
  17   6    -0.00  -0.00   0.00     0.00   0.00  -0.00    -0.00   0.00   0.00
  18   1     0.00  -0.00   0.00    -0.00   0.00   0.00    -0.00   0.00  -0.00
  19   1     0.00   0.00  -0.00    -0.00  -0.00   0.00     0.00   0.00  -0.00
  20   1    -0.00   0.00  -0.00     0.00  -0.00  -0.00     0.00  -0.00   0.00
  21   1    -0.00   0.00  -0.00     0.00  -0.00   0.00    -0.00   0.00  -0.01
  22   6    -0.00   0.01  -0.00     0.00  -0.00  -0.00    -0.00   0.00   0.00
  23   8     0.00  -0.00  -0.00    -0.00   0.00   0.00     0.00  -0.00  -0.00
  24   7    -0.10   0.20   0.14     0.00   0.00  -0.00     0.00   0.00  -0.00
  25   1    -0.04  -0.12   0.03    -0.00  -0.01   0.00    -0.00  -0.00   0.00
  26   1     0.43  -0.66  -0.53     0.00   0.00  -0.00    -0.00   0.00   0.00
  27   7     0.01  -0.00  -0.03    -0.00  -0.00   0.00     0.00  -0.00  -0.00
  28   1    -0.02   0.04   0.04    -0.00   0.00   0.00    -0.01   0.01   0.01
  29   1    -0.04  -0.02   0.07     0.00   0.00  -0.00     0.00   0.00  -0.00
  30   6     0.00  -0.00   0.00     0.00  -0.00   0.00     0.00  -0.00   0.00
  31   8     0.00   0.00  -0.00    -0.00   0.00  -0.00    -0.00   0.00  -0.00
  32   7     0.00  -0.00  -0.00    -0.00   0.00  -0.00    -0.00   0.00  -0.00
  33   1     0.00  -0.00   0.00     0.00   0.00   0.00     0.00   0.00   0.00
  34   1    -0.00   0.00  -0.00     0.00  -0.00   0.00     0.00  -0.00   0.00
  35   7     0.00  -0.00   0.00     0.00  -0.01   0.00     0.00  -0.00   0.00
  36   1    -0.00   0.00  -0.00    -0.01   0.03  -0.01    -0.01   0.01  -0.01
  37   1    -0.00   0.00   0.00    -0.00   0.01   0.01    -0.00   0.00   0.00
  38   6    -0.00   0.00   0.00    -0.00   0.00   0.01     0.00  -0.00   0.00
  39   8    -0.00   0.00  -0.00    -0.00  -0.00  -0.00    -0.00   0.00  -0.00
  40   7    -0.00  -0.00   0.00     0.02  -0.01   0.02     0.00  -0.00   0.00
  41   1     0.01  -0.00   0.00    -0.05   0.00  -0.01    -0.00   0.00  -0.00
  42   1    -0.00   0.00  -0.01    -0.01   0.03  -0.05    -0.00   0.00  -0.00
  43   7     0.00  -0.00  -0.00     0.08  -0.01   0.25     0.00  -0.00   0.01
  44   1     0.00  -0.00   0.00    -0.36   0.05  -0.89    -0.01   0.00  -0.04
  45   1    -0.00   0.00   0.00     0.06  -0.02  -0.05     0.00  -0.00  -0.00
  46   6    -0.00  -0.00   0.00    -0.00  -0.00  -0.00    -0.01  -0.00   0.00
  47   8     0.00   0.00  -0.00     0.00   0.00  -0.00     0.00   0.00  -0.00
  48   7     0.00   0.00   0.00     0.00   0.00  -0.00    -0.00   0.03   0.01
  49   1     0.00  -0.00  -0.00    -0.00   0.00   0.00     0.02  -0.08  -0.02
  50   1    -0.00  -0.00  -0.00    -0.01  -0.01  -0.00    -0.02  -0.02  -0.00
  51   7    -0.00  -0.00   0.00     0.01   0.01  -0.00    -0.20  -0.17   0.04
  52   1     0.00   0.00  -0.00    -0.03  -0.03   0.01     0.61   0.71  -0.13
  53   1     0.00  -0.00  -0.00    -0.00   0.00   0.00     0.16  -0.06  -0.04
                    151                    152                    153
                        a                      a                      a 
 Frequencies --  3553.7539              3559.9672              3564.4651
 Red. masses --     2.1717                 2.1766                 2.1837
 Frc consts  --     0.0000                 0.0000                 0.0000
 IR Inten    --    20.9814                10.0697                15.7345
 Raman Activ --     0.0000                 0.0000                 0.0000
 Depolar     --     0.0000                 0.0000                 0.0000
 Atom AN      X      Y      Z        X      Y      Z        X      Y      Z
   1   8     0.00   0.00  -0.00     0.00   0.00   0.00    -0.00   0.00  -0.00
   2   6    -0.00  -0.00   0.00     0.00  -0.00  -0.00     0.00  -0.00   0.00
   3   1    -0.00  -0.00  -0.00     0.00  -0.00   0.00    -0.00  -0.00  -0.00
   4   1     0.00  -0.00  -0.00    -0.00   0.00   0.00    -0.00  -0.00   0.00
   5   6     0.00   0.00   0.00     0.00  -0.00   0.00    -0.00   0.00   0.00
   6   1     0.00   0.00  -0.00    -0.00   0.00  -0.00     0.00   0.00   0.00
   7   1    -0.00   0.00  -0.00    -0.00   0.00   0.00     0.00  -0.00  -0.00
   8   7     0.00   0.00   0.00     0.00   0.00   0.00     0.00  -0.00   0.00
   9   6     0.00   0.00   0.00    -0.00   0.00   0.00    -0.00   0.00   0.00
  10   1     0.00   0.00  -0.00    -0.00   0.00  -0.00    -0.00   0.00   0.00
  11   1     0.00  -0.00  -0.00     0.00  -0.00  -0.00    -0.00  -0.00  -0.00
  12   1    -0.00  -0.00   0.00    -0.00   0.00   0.00     0.00   0.00   0.00
  13   6     0.00   0.00   0.00    -0.00   0.00   0.00    -0.00   0.00  -0.00
  14   1     0.00   0.00  -0.00    -0.00   0.00  -0.00    -0.00   0.00   0.00
  15   1    -0.00  -0.00  -0.00     0.00   0.00   0.00     0.00  -0.00   0.00
  16   1     0.00  -0.00  -0.00     0.00  -0.00  -0.00     0.00  -0.00  -0.00
  17   6     0.00   0.00   0.00    -0.00   0.00   0.00    -0.00   0.00  -0.00
  18   1    -0.00  -0.00  -0.00    -0.00   0.00   0.00     0.00  -0.00   0.00
  19   1    -0.00  -0.00   0.00    -0.00   0.00   0.00     0.00   0.00   0.00
  20   1     0.00  -0.00  -0.00     0.00  -0.00   0.00     0.00  -0.00  -0.00
  21   1    -0.00  -0.00   0.01    -0.00   0.00  -0.00     0.00  -0.00   0.00
  22   6     0.01  -0.00  -0.01     0.00  -0.00  -0.00     0.00  -0.00  -0.00
  23   8    -0.00   0.00   0.00     0.00   0.00   0.00    -0.00   0.00   0.00
  24   7     0.01  -0.02  -0.01    -0.00   0.00   0.00     0.00  -0.00  -0.00
  25   1     0.00   0.01  -0.00    -0.00  -0.00   0.00     0.00   0.00  -0.00
  26   1    -0.04   0.07   0.05     0.00  -0.00  -0.00    -0.00   0.00   0.00
  27   7     0.13  -0.10  -0.25     0.00  -0.00  -0.00     0.00  -0.00  -0.00
  28   1    -0.21   0.54   0.48    -0.00   0.00   0.00    -0.00   0.00   0.00
  29   1    -0.29  -0.17   0.46    -0.00  -0.00   0.00    -0.00  -0.00   0.00
  30   6     0.00  -0.00   0.00    -0.01   0.00  -0.01     0.00  -0.00   0.00
  31   8    -0.00   0.00  -0.00     0.00  -0.00   0.00    -0.00   0.00  -0.00
  32   7     0.00  -0.00   0.00    -0.18   0.12  -0.21    -0.00   0.00  -0.00
  33   1    -0.00  -0.00  -0.00     0.27   0.02   0.65     0.00   0.00   0.00
  34   1    -0.00   0.00  -0.00     0.40  -0.48   0.14     0.00  -0.00   0.00
  35   7    -0.00   0.00  -0.00    -0.01   0.02  -0.00    -0.00   0.00   0.00
  36   1     0.00  -0.00   0.00     0.03  -0.06   0.03    -0.00   0.00  -0.00
  37   1    -0.00   0.00   0.00     0.00  -0.01  -0.01     0.00  -0.01  -0.01
  38   6     0.00   0.00  -0.00    -0.00   0.00  -0.00    -0.00   0.00  -0.00
  39   8    -0.00  -0.00   0.00     0.00  -0.00   0.00     0.00  -0.00   0.00
  40   7     0.00   0.00  -0.00    -0.00   0.00  -0.00    -0.00   0.00  -0.00
  41   1    -0.00   0.00  -0.00     0.00  -0.00   0.00     0.00  -0.00   0.00
  42   1     0.00  -0.00   0.00     0.00  -0.00   0.00     0.00  -0.00   0.00
  43   7    -0.00  -0.00  -0.00     0.00  -0.00  -0.00     0.00  -0.00  -0.00
  44   1     0.00   0.00  -0.00     0.00  -0.00   0.00     0.00  -0.00   0.00
  45   1    -0.00   0.00   0.00    -0.00   0.00   0.00    -0.01   0.00   0.01
  46   6     0.00   0.00  -0.00     0.00   0.00  -0.00     0.00   0.01   0.00
  47   8    -0.00  -0.00   0.00    -0.00  -0.00  -0.00    -0.00  -0.00  -0.00
  48   7    -0.00  -0.00  -0.00    -0.00  -0.00  -0.00     0.07   0.29   0.06
  49   1    -0.00   0.00   0.00    -0.00   0.00   0.00     0.20  -0.63  -0.19
  50   1     0.00   0.00   0.00     0.00   0.00   0.00    -0.47  -0.46  -0.02
  51   7     0.00   0.00  -0.00     0.00   0.00  -0.00     0.02   0.01  -0.00
  52   1    -0.01  -0.01   0.00    -0.00  -0.00   0.00    -0.05  -0.06   0.01
  53   1    -0.01   0.00   0.00    -0.00   0.00   0.00    -0.02   0.01   0.00
