 Entering Gaussian System
 *********************************************
 Gaussian 98:
 frequency output generated by the xtb code
 *********************************************
                         Standard orientation:
 --------------------------------------------------------------------
  Center     Atomic     Atomic              Coordinates (Angstroms)
  Number     Number      Type              X           Y           Z
 --------------------------------------------------------------------
    1          8             0       -1.636026   -1.363095    2.295026
    2          6             0       -0.626962   -1.818816    1.441090
    3          1             0        0.154923   -2.238157    2.078743
    4          1             0       -0.999867   -2.628306    0.796025
    5          6             0       -0.090722   -0.741189    0.492595
    6          1             0       -0.950396   -0.344334   -0.053818
    7          1             0        0.599165   -1.201487   -0.214453
    8          7             0        0.613223    0.405139    1.123523
    9          6             0       -0.290702    1.177928    1.990675
   10          1             0       -1.163784    1.491639    1.422048
   11          1             0        0.248019    2.047580    2.363571
   12          1             0       -0.627134    0.560069    2.820188
   13          6             0        1.103418    1.285610    0.049565
   14          1             0        0.265592    1.641047   -0.545471
   15          1             0        1.786685    0.732752   -0.592058
   16          1             0        1.618300    2.131971    0.501869
   17          6             0        1.774370   -0.039495    1.907734
   18          1             0        2.434119   -0.632352    1.277394
   19          1             0        1.452424   -0.632209    2.759726
   20          1             0        2.304161    0.841356    2.268463
   21          1             0       -2.313806   -0.931581    1.738131
   22          6             0        2.098987   -2.534987   -1.986976
   23          8             0        2.148085   -1.334832   -1.700072
   24          7             0        3.217057   -3.297355   -1.996636
   25          1             0        4.104556   -2.847104   -1.861989
   26          1             0        3.208524   -4.253535   -2.300567
   27          7             0        0.935425   -3.153960   -2.246530
   28          1             0        0.906272   -4.115402   -2.531895
   29          1             0        0.077363   -2.602097   -2.298274
   30          6             0        2.802673    3.962612    2.984047
   31          8             0        2.250669    3.034238    2.409411
   32          7             0        2.374080    4.427052    4.181907
   33          1             0        1.631786    3.940465    4.651342
   34          1             0        2.877048    5.128477    4.693386
   35          7             0        3.881574    4.594005    2.463562
   36          1             0        4.285597    5.405507    2.893311
   37          1             0        4.192390    4.338910    1.543674
   38          6             0       -1.026134   -0.370335   -3.080351
   39          8             0       -1.284267   -1.428039   -2.498386
   40          7             0        0.198078    0.183833   -3.037020
   41          1             0        0.955420   -0.342485   -2.595393
   42          1             0        0.437550    0.954077   -3.634431
   43          7             0       -1.978219    0.300869   -3.768170
   44          1             0       -1.801294    1.191816   -4.194111
   45          1             0       -2.923467   -0.037730   -3.741921
   46          6             0       -4.024982   -0.793748   -0.225345
   47          8             0       -3.101316   -0.168283    0.289565
   48          7             0       -5.236309   -0.886426    0.376586
   49          1             0       -5.398834   -0.343896    1.206299
   50          1             0       -6.028297   -1.301890   -0.078653
   51          7             0       -3.897731   -1.413617   -1.418757
   52          1             0       -4.600917   -2.062422   -1.725309
   53          1             0       -2.956712   -1.523659   -1.797642
 --------------------------------------------------------------------
     1 basis functions        1 primitive gaussians
     1 alpha electrons        1 beta electrons

 Harmonic frequencies (cm**-1), IR intensities (km*mol⁻¹),
 Raman scattering activities (A**4/amu), Raman depolarization ratios,
 reduced masses (AMU), force constants (mDyne/A) and normal coordinates:
                      1                      2                      3
                        a                      a                      a 
 Frequencies --    -7.1475                 8.6428                17.7761
 Red. masses --    11.2690                12.2337                12.1203
 Frc consts  --     0.0000                 0.0000                 0.0000
 IR Inten    --     0.0512                 0.9079                 1.9702
 Raman Activ --     0.0000                 0.0000                 0.0000
 Depolar     --     0.0000                 0.0000                 0.0000
 Atom AN      X      Y      Z        X      Y      Z        X      Y      Z
   1   8     0.04  -0.05   0.02    -0.11   0.14  -0.07     0.10   0.06  -0.08
   2   6     0.03  -0.04   0.01    -0.11   0.13  -0.08     0.07   0.04  -0.08
   3   1     0.01  -0.01   0.00    -0.03   0.03  -0.03     0.02   0.01  -0.03
   4   1     0.01  -0.01   0.00    -0.04   0.04  -0.03     0.01   0.02  -0.02
   5   6     0.02  -0.03   0.01    -0.10   0.14  -0.05     0.07   0.04  -0.08
   6   1     0.01  -0.01   0.00    -0.03   0.06  -0.00     0.02   0.01  -0.02
   7   1     0.01  -0.01   0.00    -0.04   0.04  -0.03     0.02   0.01  -0.03
   8   7     0.01  -0.03   0.01    -0.04   0.10  -0.03     0.09   0.04  -0.09
   9   6     0.00  -0.03   0.01     0.02   0.08   0.04     0.09   0.05  -0.10
  10   1    -0.00  -0.01   0.00     0.01   0.05   0.02     0.03   0.01  -0.03
  11   1    -0.00  -0.01   0.00     0.02   0.01   0.02     0.03   0.01  -0.03
  12   1     0.00  -0.01   0.00     0.00   0.01   0.00     0.02   0.02  -0.03
  13   6    -0.00  -0.02   0.01    -0.04   0.13  -0.01     0.10   0.03  -0.09
  14   1    -0.00  -0.01   0.00    -0.02   0.05   0.01     0.03   0.01  -0.03
  15   1     0.00  -0.00   0.00    -0.02   0.04  -0.01     0.03   0.00  -0.03
  16   1    -0.00  -0.00   0.00    -0.00   0.03   0.00     0.03   0.01  -0.03
  17   6     0.02  -0.01   0.01    -0.02   0.02  -0.10     0.07   0.03  -0.08
  18   1     0.01  -0.00   0.00    -0.02   0.01  -0.04     0.02   0.01  -0.02
  19   1     0.01  -0.00   0.00    -0.00  -0.00  -0.03     0.02   0.01  -0.02
  20   1     0.00  -0.00   0.00     0.01  -0.00  -0.02     0.02   0.01  -0.02
  21   1     0.01  -0.01   0.00    -0.03   0.03  -0.02     0.03   0.02  -0.02
  22   6    -0.01   0.01  -0.04     0.08   0.13   0.06     0.02  -0.06  -0.07
  23   8     0.00   0.00  -0.03    -0.02   0.17   0.04     0.00  -0.06  -0.11
  24   7    -0.02  -0.00  -0.07     0.15   0.23   0.12     0.05  -0.03  -0.13
  25   1    -0.00  -0.00  -0.02     0.03   0.08   0.03     0.01   0.00  -0.05
  26   1    -0.01   0.00  -0.02     0.06   0.06   0.03     0.02  -0.01  -0.03
  27   7    -0.02   0.02  -0.04     0.15   0.05   0.05     0.03  -0.10  -0.01
  28   1    -0.01   0.01  -0.01     0.06   0.01   0.02     0.01  -0.03   0.00
  29   1    -0.00   0.01  -0.01     0.03  -0.01   0.01     0.00  -0.04   0.01
  30   6    -0.03   0.02  -0.01     0.18  -0.08   0.06    -0.09   0.01   0.14
  31   8    -0.03   0.00   0.01     0.12  -0.03   0.05     0.03   0.03   0.00
  32   7    -0.39   0.44  -0.30     0.21  -0.03   0.04    -0.28  -0.12   0.14
  33   1    -0.18   0.19  -0.12     0.03   0.02   0.00    -0.08  -0.06   0.00
  34   1    -0.11   0.11  -0.07     0.07  -0.02   0.01    -0.10  -0.04   0.08
  35   7     0.33  -0.38   0.25     0.29  -0.22   0.10    -0.07   0.12   0.35
  36   1     0.09  -0.09   0.05     0.10  -0.07   0.03    -0.05   0.03   0.12
  37   1     0.16  -0.18   0.11     0.08  -0.07   0.03     0.01   0.06   0.10
  38   6    -0.00   0.04   0.01    -0.09  -0.12   0.03    -0.09  -0.18   0.02
  39   8    -0.01   0.04  -0.01     0.00  -0.16   0.04    -0.04  -0.19   0.08
  40   7    -0.00   0.03   0.01    -0.14  -0.02   0.01    -0.11  -0.14  -0.03
  41   1    -0.00   0.01  -0.00    -0.02   0.01  -0.00    -0.02  -0.03  -0.01
  42   1     0.00   0.01   0.00    -0.06  -0.00  -0.00    -0.04  -0.04  -0.02
  43   7    -0.00   0.05   0.02    -0.16  -0.22   0.04    -0.14  -0.26   0.02
  44   1     0.00   0.02   0.01    -0.07  -0.05   0.02    -0.05  -0.07   0.00
  45   1    -0.00   0.02   0.00    -0.04  -0.07   0.02    -0.03  -0.07   0.02
  46   6     0.02  -0.01   0.03    -0.09  -0.10  -0.08     0.03   0.15   0.04
  47   8     0.03  -0.02   0.04    -0.16  -0.01  -0.12     0.08   0.16  -0.03
  48   7     0.03  -0.02   0.05    -0.12  -0.11  -0.12     0.01   0.35   0.04
  49   1     0.01  -0.01   0.02    -0.05  -0.01  -0.05     0.02   0.12  -0.00
  50   1     0.01  -0.00   0.01    -0.02  -0.05  -0.03    -0.00   0.09   0.03
  51   7     0.00   0.02   0.02    -0.02  -0.23  -0.01    -0.02   0.01   0.12
  52   1    -0.00   0.01   0.00     0.01  -0.08   0.01    -0.02   0.01   0.05
  53   1    -0.00   0.01   0.00    -0.00  -0.06   0.01    -0.01  -0.03   0.04
                      4                      5                      6
                        a                      a                      a 
 Frequencies --    21.2949                24.7274                32.4264
 Red. masses --    11.8512                11.4511                11.1858
 Frc consts  --     0.0000                 0.0000                 0.0000
 IR Inten    --     0.7318                 3.0253                 1.8299
 Raman Activ --     0.0000                 0.0000                 0.0000
 Depolar     --     0.0000                 0.0000                 0.0000
 Atom AN      X      Y      Z        X      Y      Z        X      Y      Z
   1   8    -0.13  -0.06  -0.03    -0.09   0.29   0.00     0.02  -0.01   0.11
   2   6    -0.06  -0.09   0.05    -0.06   0.13   0.09     0.05  -0.04   0.14
   3   1    -0.03  -0.03   0.03    -0.04   0.03   0.04     0.01   0.01   0.06
   4   1    -0.01  -0.03   0.01    -0.02   0.03   0.03     0.02  -0.03   0.06
   5   6     0.02  -0.12   0.07     0.06   0.03   0.04     0.03  -0.09   0.08
   6   1     0.02  -0.03   0.00     0.03   0.01  -0.02     0.01  -0.06  -0.01
   7   1     0.02  -0.04   0.04     0.03  -0.02   0.04     0.03  -0.03   0.05
   8   7     0.00  -0.13   0.10     0.06   0.05   0.02    -0.11   0.03   0.03
   9   6    -0.04  -0.10   0.04    -0.00   0.20  -0.18    -0.25   0.09  -0.18
  10   1    -0.00  -0.03  -0.00     0.03   0.06  -0.10    -0.06  -0.02  -0.09
  11   1    -0.02  -0.03   0.01     0.00   0.06  -0.06    -0.10   0.05  -0.07
  12   1    -0.02  -0.02   0.01    -0.05   0.09  -0.05    -0.08   0.06  -0.03
  13   6     0.07  -0.13   0.11     0.26  -0.10  -0.01    -0.02  -0.08  -0.02
  14   1     0.03  -0.04   0.02     0.11  -0.02  -0.04     0.01  -0.05  -0.04
  15   1     0.02  -0.04   0.04     0.08  -0.06   0.04     0.02  -0.04   0.03
  16   1     0.02  -0.04   0.04     0.08  -0.03  -0.01    -0.03  -0.00  -0.02
  17   6    -0.05  -0.12   0.17    -0.08   0.05   0.23    -0.18   0.18   0.23
  18   1    -0.00  -0.04   0.06    -0.01  -0.02   0.11    -0.02   0.04   0.12
  19   1    -0.03  -0.03   0.04    -0.07   0.05   0.07    -0.08   0.08   0.08
  20   1    -0.02  -0.03   0.06    -0.02   0.01   0.06    -0.08   0.07   0.05
  21   1    -0.02  -0.01  -0.02    -0.01   0.06  -0.02     0.01  -0.01   0.02
  22   6     0.12   0.07  -0.09    -0.05  -0.09  -0.10     0.03   0.06  -0.06
  23   8     0.06   0.06   0.00    -0.03  -0.13  -0.03     0.02   0.06  -0.05
  24   7     0.18   0.15  -0.21    -0.07  -0.12  -0.19     0.06   0.11  -0.22
  25   1     0.04   0.05  -0.05    -0.02  -0.04  -0.05     0.01   0.03  -0.07
  26   1     0.06   0.05  -0.08    -0.03  -0.03  -0.07     0.01   0.03  -0.05
  27   7     0.16   0.02  -0.10    -0.07  -0.06  -0.13     0.02   0.03   0.05
  28   1     0.06   0.01  -0.05    -0.03  -0.01  -0.06     0.01   0.01  -0.01
  29   1     0.03  -0.01  -0.01    -0.02  -0.01  -0.02     0.00   0.00   0.02
  30   6    -0.02   0.01  -0.09     0.04   0.05   0.05    -0.00  -0.03   0.02
  31   8    -0.03  -0.09   0.07     0.09   0.06  -0.00    -0.27   0.17  -0.06
  32   7     0.05   0.15  -0.13    -0.01   0.00   0.05     0.20  -0.10   0.11
  33   1     0.03   0.05  -0.00    -0.00  -0.01   0.00     0.02   0.01   0.02
  34   1     0.01   0.06  -0.07    -0.01  -0.00   0.02     0.10  -0.06   0.04
  35   7    -0.10  -0.01  -0.27     0.04   0.09   0.11     0.13  -0.24   0.03
  36   1    -0.02   0.01  -0.10     0.00   0.02   0.04     0.08  -0.09   0.02
  37   1    -0.04  -0.04  -0.07     0.02   0.04   0.03    -0.01  -0.04  -0.01
  38   6    -0.05  -0.04   0.16    -0.04   0.05   0.09     0.01  -0.06  -0.11
  39   8     0.03  -0.11   0.11    -0.04  -0.03  -0.04    -0.01  -0.01  -0.01
  40   7    -0.08   0.03   0.18    -0.04   0.05   0.19    -0.01  -0.02  -0.07
  41   1    -0.01   0.01   0.03    -0.01  -0.00   0.03    -0.01   0.01   0.00
  42   1    -0.04   0.02   0.06    -0.01   0.03   0.07     0.00  -0.02  -0.04
  43   7    -0.11  -0.05   0.24    -0.04   0.13   0.18     0.05  -0.19  -0.29
  44   1    -0.05   0.01   0.10    -0.01   0.06   0.09     0.02  -0.06  -0.10
  45   1    -0.03  -0.02   0.08    -0.01   0.04   0.05     0.02  -0.06  -0.09
  46   6     0.00   0.12  -0.09     0.02  -0.15  -0.09     0.05   0.04   0.06
  47   8     0.06   0.08  -0.12     0.01  -0.06  -0.22     0.09   0.00   0.06
  48   7    -0.04   0.35  -0.16     0.09  -0.26   0.02     0.07   0.06   0.09
  49   1    -0.00   0.11  -0.05     0.03  -0.06   0.00     0.03   0.02   0.03
  50   1    -0.02   0.10  -0.04     0.02  -0.09   0.03     0.01   0.03   0.03
  51   7    -0.01   0.00  -0.03    -0.03  -0.20  -0.09     0.02   0.05   0.06
  52   1    -0.02   0.01  -0.00     0.00  -0.07   0.00    -0.00   0.02   0.01
  53   1     0.00  -0.03   0.01    -0.01  -0.04  -0.04     0.00   0.01   0.01
                      7                      8                      9
                        a                      a                      a 
 Frequencies --    38.1343                41.9556                47.6766
 Red. masses --    12.1946                12.2513                11.3064
 Frc consts  --     0.0000                 0.0000                 0.0000
 IR Inten    --     1.6869                 2.6357                 0.9738
 Raman Activ --     0.0000                 0.0000                 0.0000
 Depolar     --     0.0000                 0.0000                 0.0000
 Atom AN      X      Y      Z        X      Y      Z        X      Y      Z
   1   8     0.15  -0.21  -0.17    -0.07   0.12   0.17     0.07  -0.05  -0.15
   2   6     0.18  -0.04  -0.16    -0.06   0.00   0.20    -0.04  -0.04  -0.25
   3   1     0.06   0.00  -0.05    -0.02   0.02   0.07    -0.01  -0.05  -0.10
   4   1     0.08  -0.02  -0.06    -0.02  -0.02   0.09    -0.05   0.02  -0.09
   5   6     0.08   0.05  -0.11    -0.06  -0.12   0.06    -0.01   0.02  -0.17
   6   1     0.01  -0.01  -0.03    -0.02  -0.05   0.01     0.01   0.02  -0.05
   7   1     0.04   0.04  -0.03    -0.02  -0.06   0.03     0.00   0.01  -0.05
   8   7    -0.05   0.11  -0.07    -0.05  -0.05  -0.09    -0.02  -0.03  -0.08
   9   6    -0.14  -0.01  -0.07    -0.02   0.02  -0.11    -0.10   0.06  -0.25
  10   1    -0.05  -0.03  -0.02    -0.02  -0.02  -0.02    -0.00   0.03  -0.11
  11   1    -0.07   0.01  -0.01    -0.00   0.02  -0.07    -0.03   0.01  -0.06
  12   1    -0.02  -0.02  -0.02     0.01   0.03  -0.01    -0.07   0.03  -0.08
  13   6    -0.12   0.17  -0.04    -0.12  -0.13  -0.18     0.23  -0.10  -0.02
  14   1    -0.04   0.03  -0.01    -0.05  -0.06  -0.05     0.10  -0.01  -0.04
  15   1    -0.02   0.07  -0.01    -0.04  -0.05  -0.05     0.08  -0.05   0.03
  16   1    -0.06   0.06  -0.00    -0.03  -0.02  -0.08     0.07  -0.04   0.01
  17   6    -0.02   0.19  -0.06     0.00   0.04  -0.11    -0.19  -0.10   0.14
  18   1     0.01   0.08  -0.02    -0.01   0.00  -0.03    -0.04  -0.06   0.08
  19   1     0.01   0.04  -0.02     0.02   0.03  -0.01    -0.12  -0.01   0.03
  20   1    -0.03   0.07  -0.01     0.00   0.02  -0.06    -0.05  -0.04   0.06
  21   1     0.03  -0.06  -0.04    -0.01   0.02   0.03     0.01   0.01  -0.01
  22   6    -0.01  -0.12   0.02     0.09   0.06   0.03     0.04   0.06   0.06
  23   8     0.03  -0.13  -0.01     0.09   0.07   0.00     0.07   0.12  -0.15
  24   7    -0.04  -0.18   0.09     0.10   0.06   0.12     0.01  -0.01   0.43
  25   1    -0.01  -0.05   0.03     0.03   0.02   0.03     0.00   0.00   0.09
  26   1    -0.02  -0.05   0.03     0.03   0.02   0.02     0.01  -0.00   0.11
  27   7    -0.02  -0.09  -0.02     0.12   0.06  -0.03     0.06   0.08  -0.03
  28   1    -0.01  -0.03   0.01     0.03   0.01   0.01     0.01   0.00   0.07
  29   1    -0.00  -0.02  -0.01     0.03   0.01  -0.01     0.02   0.02  -0.02
  30   6    -0.02   0.05   0.03    -0.04  -0.11  -0.14    -0.04  -0.08  -0.01
  31   8    -0.28   0.23   0.00    -0.02   0.02  -0.42    -0.02  -0.16   0.08
  32   7     0.19   0.03   0.11    -0.15  -0.35  -0.10    -0.03  -0.00  -0.04
  33   1     0.02   0.05   0.03    -0.06  -0.11  -0.08     0.00  -0.00   0.00
  34   1     0.09  -0.02   0.03    -0.05  -0.12   0.02    -0.01   0.01  -0.03
  35   7     0.07  -0.14  -0.01     0.04  -0.07   0.10    -0.09  -0.08  -0.10
  36   1     0.07  -0.06   0.00     0.00  -0.04   0.08    -0.02  -0.01  -0.04
  37   1    -0.02  -0.03  -0.02     0.03   0.03   0.02    -0.02  -0.04  -0.02
  38   6    -0.01   0.02   0.16     0.04   0.07   0.10    -0.03   0.05  -0.01
  39   8     0.01  -0.05   0.06     0.08   0.07   0.11     0.01   0.05   0.02
  40   7     0.02  -0.03   0.12     0.08  -0.01  -0.09    -0.03   0.06  -0.09
  41   1     0.01  -0.03   0.00     0.03  -0.00  -0.03     0.00   0.02  -0.03
  42   1    -0.00   0.01   0.05     0.01   0.01  -0.01    -0.02   0.02  -0.03
  43   7    -0.06   0.16   0.37    -0.04   0.18   0.31    -0.08   0.04   0.06
  44   1    -0.02   0.05   0.12    -0.01   0.04   0.07    -0.03   0.01   0.00
  45   1    -0.02   0.05   0.11    -0.01   0.06   0.11    -0.02   0.01   0.03
  46   6     0.00  -0.01  -0.05     0.00   0.02   0.01     0.05   0.04   0.12
  47   8     0.04  -0.08  -0.05    -0.02   0.02   0.05     0.02   0.17   0.05
  48   7    -0.02   0.10  -0.09    -0.02   0.02  -0.04     0.09  -0.04   0.20
  49   1     0.00   0.03  -0.02    -0.01   0.00  -0.01     0.02   0.01   0.04
  50   1    -0.01   0.03  -0.02     0.00   0.00  -0.02     0.03  -0.03   0.07
  51   7    -0.02  -0.04  -0.05     0.05   0.03   0.01     0.05  -0.04   0.18
  52   1    -0.01   0.00  -0.01     0.02   0.01  -0.00     0.02  -0.03   0.06
  53   1    -0.00  -0.03  -0.01     0.02   0.01   0.01     0.01   0.01   0.03
                     10                     11                     12
                        a                      a                      a 
 Frequencies --    48.2248                49.4781                57.3372
 Red. masses --    12.7750                12.5980                12.8266
 Frc consts  --     0.0000                 0.0000                 0.0000
 IR Inten    --     0.5489                 7.8764                 4.1913
 Raman Activ --     0.0000                 0.0000                 0.0000
 Depolar     --     0.0000                 0.0000                 0.0000
 Atom AN      X      Y      Z        X      Y      Z        X      Y      Z
   1   8    -0.03   0.03   0.08     0.01  -0.04   0.02     0.24  -0.09   0.13
   2   6    -0.02   0.02   0.08     0.12  -0.06   0.17     0.13  -0.04  -0.00
   3   1    -0.00   0.01   0.02     0.02   0.02   0.09     0.06  -0.02  -0.03
   4   1    -0.00   0.00   0.03     0.07  -0.05   0.07     0.02  -0.00  -0.00
   5   6    -0.03   0.00   0.05     0.14  -0.13   0.11     0.05   0.01   0.00
   6   1    -0.01  -0.00   0.02     0.04  -0.05   0.01     0.00  -0.00   0.01
   7   1    -0.01  -0.00   0.02     0.05  -0.05   0.05     0.01   0.01  -0.01
   8   7    -0.03   0.02   0.04     0.10  -0.07   0.05     0.05   0.01   0.01
   9   6    -0.01   0.00   0.07     0.06  -0.08   0.03    -0.00   0.09  -0.11
  10   1    -0.01  -0.01   0.03     0.01  -0.04   0.01     0.02   0.03  -0.06
  11   1    -0.00   0.00   0.01     0.01  -0.01  -0.00     0.00   0.02  -0.03
  12   1     0.01  -0.00   0.02     0.03  -0.02   0.02    -0.03   0.04  -0.04
  13   6    -0.08   0.03   0.02     0.02  -0.08   0.00     0.19  -0.07   0.01
  14   1    -0.03   0.00   0.01    -0.01  -0.04   0.01     0.07  -0.02  -0.03
  15   1    -0.02   0.01   0.00     0.00  -0.02  -0.00     0.06  -0.04   0.03
  16   1    -0.02   0.01   0.00     0.00  -0.01  -0.01     0.05  -0.02   0.00
  17   6     0.01   0.03  -0.01     0.13   0.04   0.04    -0.05   0.01   0.15
  18   1    -0.00   0.01  -0.01     0.05   0.02   0.01    -0.01  -0.03   0.08
  19   1     0.02   0.01  -0.00     0.05   0.01   0.02    -0.05   0.03   0.05
  20   1     0.00   0.01  -0.01     0.02   0.02   0.00    -0.01   0.00   0.03
  21   1    -0.00   0.01   0.02     0.02  -0.02  -0.03     0.02  -0.06   0.05
  22   6     0.01  -0.04  -0.08    -0.08   0.09   0.09     0.01   0.02  -0.02
  23   8    -0.11  -0.10   0.17    -0.07   0.16  -0.14     0.02   0.03  -0.07
  24   7     0.01  -0.06   0.30    -0.12   0.04   0.38    -0.00  -0.01   0.13
  25   1    -0.01  -0.01   0.14    -0.03   0.02   0.06    -0.00   0.00   0.03
  26   1     0.04   0.02  -0.03    -0.03   0.01   0.11     0.00   0.00   0.01
  27   7     0.14   0.04  -0.77    -0.09   0.08   0.14     0.03   0.04  -0.13
  28   1     0.05   0.00  -0.18    -0.03   0.01   0.09     0.00   0.00   0.00
  29   1     0.02  -0.01  -0.16    -0.02   0.02  -0.00     0.01   0.01  -0.02
  30   6     0.00   0.03   0.01     0.01   0.01   0.01     0.07   0.05  -0.00
  31   8    -0.03   0.07  -0.01     0.00   0.04  -0.04     0.16   0.03  -0.04
  32   7     0.03   0.02   0.02     0.01  -0.03   0.02    -0.01   0.02  -0.02
  33   1     0.00   0.01   0.00    -0.00  -0.01  -0.00     0.00  -0.01  -0.01
  34   1     0.02  -0.00   0.01     0.00  -0.01   0.01    -0.01   0.01   0.01
  35   7     0.02   0.00   0.02     0.03   0.01   0.04     0.06   0.12   0.06
  36   1     0.01  -0.00   0.01     0.01   0.00   0.02    -0.00   0.04   0.02
  37   1    -0.00   0.01   0.00     0.01   0.01   0.01     0.03   0.04   0.02
  38   6    -0.02  -0.06  -0.05    -0.16   0.01  -0.09    -0.02  -0.01   0.01
  39   8    -0.04  -0.10  -0.14    -0.13  -0.07  -0.22    -0.01   0.03   0.08
  40   7    -0.03  -0.03   0.08    -0.22   0.10   0.01    -0.03   0.01  -0.02
  41   1    -0.02  -0.01   0.03    -0.05   0.03  -0.01    -0.00   0.01  -0.01
  42   1     0.00  -0.00   0.03    -0.07   0.04   0.02    -0.01  -0.01  -0.02
  43   7     0.03  -0.05  -0.10    -0.20   0.00  -0.07    -0.03  -0.06  -0.03
  44   1     0.01  -0.01  -0.02    -0.07   0.02   0.02    -0.01  -0.02  -0.02
  45   1     0.01  -0.02  -0.06    -0.05  -0.01  -0.03    -0.01  -0.02  -0.00
  46   6     0.03   0.03   0.05     0.10  -0.02  -0.15    -0.19  -0.06  -0.01
  47   8     0.04   0.06   0.02     0.24  -0.14  -0.24    -0.19  -0.38   0.30
  48   7     0.05   0.05   0.08     0.16   0.11  -0.05    -0.35   0.08  -0.27
  49   1     0.02   0.02   0.02     0.08   0.03  -0.01    -0.11  -0.02  -0.05
  50   1     0.01   0.01   0.03     0.02   0.05   0.00    -0.09   0.08  -0.13
  51   7     0.02  -0.01   0.08    -0.06  -0.01  -0.18    -0.12   0.16  -0.12
  52   1     0.00  -0.00   0.03    -0.04   0.02  -0.04    -0.05   0.09  -0.10
  53   1     0.00  -0.00   0.01    -0.03  -0.03  -0.07    -0.02   0.02   0.01
                     13                     14                     15
                        a                      a                      a 
 Frequencies --    71.8732                74.7589                84.1265
 Red. masses --    12.6801                12.6417                12.6981
 Frc consts  --     0.0000                 0.0000                 0.0000
 IR Inten    --     0.8921                 2.3149                 2.9924
 Raman Activ --     0.0000                 0.0000                 0.0000
 Depolar     --     0.0000                 0.0000                 0.0000
 Atom AN      X      Y      Z        X      Y      Z        X      Y      Z
   1   8    -0.06   0.16   0.08     0.00   0.08   0.12    -0.08  -0.24  -0.07
   2   6    -0.04   0.05   0.12    -0.01   0.02   0.11    -0.01  -0.10  -0.05
   3   1    -0.02   0.02   0.05    -0.00   0.01   0.04    -0.00  -0.03  -0.01
   4   1    -0.01   0.00   0.05    -0.01  -0.00   0.04     0.02  -0.03  -0.03
   5   6     0.01  -0.03   0.06    -0.01  -0.03   0.06    -0.05  -0.02   0.02
   6   1     0.01  -0.01   0.01    -0.00  -0.01   0.02    -0.02  -0.02   0.00
   7   1    -0.00  -0.03   0.02    -0.01  -0.02   0.02     0.00   0.02   0.01
   8   7     0.05  -0.02  -0.01     0.02  -0.02   0.01    -0.16   0.00   0.10
   9   6     0.09   0.02   0.00     0.05   0.01   0.02    -0.23  -0.04   0.05
  10   1     0.02   0.01   0.01     0.01   0.00   0.01    -0.07  -0.03   0.01
  11   1     0.03   0.00  -0.00     0.02   0.00  -0.00    -0.09  -0.00   0.02
  12   1     0.03   0.01   0.01     0.02   0.01   0.01    -0.07  -0.02   0.01
  13   6     0.01  -0.06  -0.06    -0.01  -0.05  -0.02    -0.13   0.03   0.13
  14   1    -0.00  -0.01  -0.01    -0.01  -0.01  -0.00    -0.04   0.02   0.04
  15   1    -0.01  -0.03  -0.03    -0.01  -0.02  -0.01    -0.04   0.01   0.03
  16   1     0.01  -0.02  -0.03     0.00  -0.01  -0.02    -0.03   0.00   0.04
  17   6     0.07  -0.01  -0.04     0.04  -0.00  -0.01    -0.18   0.05   0.17
  18   1     0.02   0.00  -0.02     0.01  -0.00  -0.00    -0.04   0.01   0.06
  19   1     0.03  -0.01  -0.01     0.02   0.00   0.00    -0.06   0.02   0.05
  20   1     0.02   0.00  -0.01     0.01   0.00  -0.01    -0.06   0.02   0.05
  21   1    -0.01   0.03   0.01    -0.00   0.01   0.03    -0.01  -0.05  -0.02
  22   6     0.04  -0.01  -0.07    -0.07  -0.01  -0.07    -0.04  -0.01  -0.00
  23   8     0.04   0.01  -0.17    -0.03   0.01  -0.18    -0.11  -0.01   0.03
  24   7     0.03  -0.04   0.04    -0.10  -0.06   0.01    -0.00   0.06  -0.04
  25   1     0.01  -0.00  -0.01    -0.02  -0.02  -0.01    -0.01   0.02   0.01
  26   1     0.01  -0.01   0.00    -0.04  -0.02   0.02     0.01   0.01  -0.00
  27   7     0.05  -0.01  -0.11    -0.09   0.00  -0.02    -0.02  -0.05  -0.01
  28   1     0.01  -0.01   0.01    -0.03  -0.00   0.01     0.01  -0.01  -0.02
  29   1     0.01  -0.01  -0.01    -0.02   0.01  -0.02    -0.01  -0.02  -0.01
  30   6    -0.04   0.03   0.13    -0.02   0.02   0.06     0.18   0.10   0.00
  31   8    -0.15  -0.00   0.30    -0.08   0.01   0.15     0.40   0.04  -0.07
  32   7     0.10   0.18   0.13     0.05   0.09   0.07    -0.00   0.04  -0.04
  33   1     0.03   0.07   0.07     0.02   0.04   0.03     0.02  -0.03  -0.02
  34   1     0.05   0.06   0.00     0.03   0.03   0.00    -0.02   0.01   0.02
  35   7    -0.07  -0.06  -0.04    -0.03  -0.03  -0.02     0.17   0.27   0.14
  36   1     0.00  -0.01  -0.04     0.00  -0.01  -0.02    -0.01   0.09   0.05
  37   1    -0.05  -0.05  -0.01    -0.02  -0.02  -0.01     0.08   0.10   0.04
  38   6    -0.02  -0.07  -0.02     0.04   0.08  -0.11    -0.01  -0.04  -0.08
  39   8     0.02   0.02   0.17     0.09   0.09  -0.09     0.01  -0.03  -0.06
  40   7     0.07  -0.25  -0.47     0.06   0.04  -0.25     0.06  -0.18  -0.36
  41   1     0.02  -0.04  -0.11     0.02   0.01  -0.07     0.01  -0.03  -0.07
  42   1    -0.00  -0.07  -0.14     0.01   0.02  -0.06     0.00  -0.03  -0.07
  43   7    -0.14  -0.03   0.19    -0.02   0.12   0.02    -0.10   0.08   0.16
  44   1    -0.04  -0.03   0.00    -0.01   0.02  -0.03    -0.02   0.00   0.00
  45   1    -0.05   0.03   0.14    -0.00   0.02   0.01    -0.03   0.03   0.07
  46   6    -0.01   0.03  -0.05     0.03  -0.08   0.04     0.08   0.01  -0.02
  47   8    -0.01  -0.00  -0.03    -0.04  -0.01   0.08     0.07   0.06  -0.04
  48   7     0.05  -0.17   0.05    -0.14   0.25  -0.26     0.09  -0.00  -0.01
  49   1     0.02  -0.08   0.04    -0.07   0.12  -0.11     0.02   0.00  -0.01
  50   1     0.01  -0.02   0.00    -0.01   0.02  -0.07     0.03  -0.01   0.00
  51   7    -0.08   0.28  -0.19     0.28  -0.51   0.30     0.09  -0.02  -0.00
  52   1    -0.01   0.06  -0.05     0.07  -0.12   0.06     0.03  -0.01   0.01
  53   1    -0.02   0.06  -0.03     0.08  -0.10   0.08     0.03  -0.00  -0.00
                     16                     17                     18
                        a                      a                      a 
 Frequencies --    89.5715                95.8386               102.9890
 Red. masses --    13.8890                12.9033                12.5663
 Frc consts  --     0.0000                 0.0000                 0.0000
 IR Inten    --     8.0307                 4.9211                 1.8248
 Raman Activ --     0.0000                 0.0000                 0.0000
 Depolar     --     0.0000                 0.0000                 0.0000
 Atom AN      X      Y      Z        X      Y      Z        X      Y      Z
   1   8    -0.19  -0.08  -0.22     0.02   0.01  -0.00     0.05   0.02   0.11
   2   6    -0.05  -0.07  -0.04     0.14   0.05   0.12    -0.04   0.04  -0.02
   3   1    -0.04  -0.01   0.02     0.04   0.06   0.06    -0.00  -0.01  -0.03
   4   1     0.02  -0.03  -0.02     0.08  -0.02   0.05    -0.04   0.03  -0.02
   5   6     0.07  -0.08   0.01     0.07   0.02   0.05    -0.06   0.10   0.03
   6   1     0.03  -0.02  -0.02     0.01  -0.03  -0.01    -0.02   0.04   0.03
   7   1     0.03  -0.03   0.02     0.04   0.01   0.03    -0.03   0.04  -0.01
   8   7     0.05  -0.10   0.06    -0.08   0.15  -0.01    -0.03   0.05   0.10
   9   6     0.04  -0.14   0.08    -0.15   0.07  -0.05    -0.00   0.03   0.14
  10   1     0.00  -0.05   0.03    -0.05  -0.00  -0.02    -0.01   0.01   0.05
  11   1     0.00  -0.04   0.02    -0.07   0.03  -0.01     0.00   0.00   0.04
  12   1     0.02  -0.05   0.02    -0.03   0.02  -0.01     0.01   0.00   0.04
  13   6     0.03  -0.05   0.08    -0.18   0.14  -0.05    -0.02   0.08   0.12
  14   1     0.01  -0.02   0.02    -0.07   0.02  -0.01    -0.01   0.04   0.04
  15   1     0.01  -0.01   0.02    -0.05   0.05  -0.02    -0.01   0.03   0.02
  16   1     0.00  -0.01   0.03    -0.06   0.05  -0.03     0.00   0.01   0.04
  17   6     0.06  -0.09   0.03    -0.02   0.29  -0.00    -0.04  -0.02   0.07
  18   1     0.03  -0.01   0.00     0.01   0.10   0.00    -0.02  -0.01   0.01
  19   1     0.03  -0.04   0.00     0.01   0.08   0.01    -0.02  -0.01   0.02
  20   1     0.01  -0.02   0.02    -0.03   0.10  -0.01    -0.00  -0.02   0.02
  21   1    -0.02  -0.01  -0.08     0.01  -0.02  -0.02     0.00   0.02   0.05
  22   6     0.00   0.02  -0.06    -0.02  -0.00  -0.05    -0.07  -0.10  -0.11
  23   8     0.12   0.04  -0.17     0.06   0.01  -0.11    -0.14  -0.06  -0.34
  24   7    -0.09  -0.13   0.10    -0.07  -0.09   0.03    -0.03  -0.06   0.05
  25   1    -0.01  -0.05  -0.02    -0.01  -0.04  -0.01    -0.01   0.01  -0.03
  26   1    -0.05  -0.02  -0.01    -0.03  -0.02  -0.01     0.01  -0.02   0.03
  27   7    -0.04   0.13  -0.12    -0.04   0.07  -0.11    -0.04  -0.21  -0.02
  28   1    -0.04   0.02   0.03    -0.03   0.01   0.02    -0.00  -0.07   0.04
  29   1    -0.01   0.05   0.01    -0.01   0.02   0.01    -0.01  -0.06  -0.02
  30   6     0.03   0.13  -0.03     0.04  -0.18   0.02    -0.03  -0.02  -0.05
  31   8    -0.05   0.29  -0.18     0.26  -0.44   0.18    -0.07   0.02  -0.11
  32   7     0.06   0.01   0.03    -0.11  -0.05  -0.09    -0.02  -0.08  -0.03
  33   1    -0.00   0.01  -0.02     0.00  -0.04  -0.00    -0.02  -0.01  -0.02
  34   1     0.03  -0.03   0.04    -0.07   0.04  -0.05    -0.01  -0.02  -0.00
  35   7     0.13   0.10   0.11    -0.11  -0.04  -0.10    -0.01  -0.04  -0.02
  36   1     0.03   0.02   0.05    -0.05   0.01  -0.04     0.01  -0.03   0.01
  37   1     0.02   0.07   0.01     0.02  -0.07   0.01     0.00  -0.01  -0.00
  38   6     0.03   0.06   0.11     0.03   0.03   0.11    -0.00   0.01   0.04
  39   8     0.05   0.24   0.46     0.04   0.15   0.32     0.20  -0.03   0.07
  40   7     0.03   0.09  -0.01     0.02   0.07   0.06    -0.11   0.25   0.10
  41   1     0.01   0.03  -0.00     0.01   0.02   0.01    -0.01   0.06  -0.01
  42   1     0.01  -0.03  -0.08     0.01  -0.02  -0.04    -0.05   0.05  -0.00
  43   7     0.05  -0.20  -0.15     0.05  -0.14  -0.08    -0.13  -0.21   0.00
  44   1    -0.00  -0.06  -0.06     0.00  -0.04  -0.03    -0.09  -0.03   0.04
  45   1     0.01  -0.03   0.03     0.01  -0.02   0.02    -0.02  -0.09   0.04
  46   6    -0.08  -0.02  -0.02     0.02  -0.03  -0.05     0.15   0.06  -0.04
  47   8    -0.10   0.09  -0.15     0.07  -0.06  -0.12     0.02   0.15   0.15
  48   7    -0.05  -0.04   0.05     0.04   0.04  -0.01     0.11  -0.17  -0.19
  49   1    -0.01   0.01   0.00     0.03   0.02  -0.00    -0.02  -0.07  -0.05
  50   1    -0.01  -0.03   0.03     0.00   0.01   0.01     0.06  -0.05  -0.10
  51   7    -0.10  -0.12   0.03    -0.04  -0.08  -0.04     0.36   0.21  -0.10
  52   1    -0.01  -0.06   0.03    -0.01  -0.03   0.01     0.12   0.04  -0.05
  53   1    -0.02  -0.02   0.01    -0.01  -0.03  -0.01     0.11   0.05   0.01
                     19                     20                     21
                        a                      a                      a 
 Frequencies --   104.9585               115.8609               136.2628
 Red. masses --    12.4062                13.1576                11.8587
 Frc consts  --     0.0000                 0.0000                 0.0000
 IR Inten    --     8.4436                21.7390                19.6318
 Raman Activ --     0.0000                 0.0000                 0.0000
 Depolar     --     0.0000                 0.0000                 0.0000
 Atom AN      X      Y      Z        X      Y      Z        X      Y      Z
   1   8     0.11   0.01  -0.06    -0.10   0.08  -0.06     0.15   0.07   0.28
   2   6     0.11   0.08  -0.08    -0.02   0.08   0.02    -0.19   0.04  -0.12
   3   1     0.03   0.00  -0.03    -0.02   0.02   0.02    -0.02  -0.06  -0.12
   4   1     0.03   0.04  -0.05     0.01   0.03  -0.01    -0.15   0.07  -0.05
   5   6     0.11   0.16   0.03     0.06   0.10   0.08    -0.25   0.12  -0.06
   6   1     0.03   0.06   0.02     0.03   0.03   0.00    -0.09   0.06   0.02
   7   1     0.03   0.07  -0.00     0.03   0.03   0.03    -0.10   0.04  -0.05
   8   7     0.13   0.10   0.16     0.01   0.09   0.17    -0.14   0.01  -0.00
   9   6     0.10   0.07   0.15    -0.02  -0.00   0.21    -0.00   0.07   0.08
  10   1     0.04   0.03   0.04    -0.01  -0.01   0.07     0.00   0.06   0.04
  11   1     0.03   0.01   0.06    -0.02   0.00   0.07     0.03  -0.00   0.03
  12   1     0.01   0.01   0.03     0.01  -0.01   0.05    -0.01   0.02   0.02
  13   6     0.20   0.13   0.21    -0.02   0.16   0.20    -0.06   0.03   0.05
  14   1     0.07   0.05   0.06    -0.01   0.06   0.07    -0.01   0.03   0.02
  15   1     0.06   0.03   0.06    -0.01   0.06   0.04    -0.03   0.01   0.01
  16   1     0.06   0.02   0.08    -0.00   0.04   0.07    -0.00  -0.01   0.03
  17   6     0.06   0.00   0.18     0.02   0.08   0.15    -0.17  -0.19  -0.06
  18   1     0.01  -0.01   0.06     0.02   0.04   0.04    -0.08  -0.08  -0.03
  19   1    -0.00   0.00   0.05     0.01   0.00   0.03    -0.07  -0.05  -0.02
  20   1     0.03  -0.01   0.06    -0.01   0.02   0.06    -0.01  -0.08  -0.01
  21   1     0.02   0.00  -0.01    -0.02   0.02  -0.03    -0.01   0.02   0.12
  22   6    -0.11   0.05   0.07     0.16  -0.02  -0.13     0.01   0.05  -0.05
  23   8    -0.17   0.01   0.30     0.34   0.03  -0.43     0.14   0.07  -0.12
  24   7    -0.09   0.10  -0.06     0.08  -0.18   0.03    -0.08  -0.07  -0.02
  25   1    -0.03   0.03   0.03     0.04  -0.06  -0.06    -0.01  -0.04  -0.03
  26   1    -0.02   0.04  -0.04    -0.01  -0.05   0.03    -0.05  -0.02  -0.02
  27   7    -0.09   0.08  -0.07     0.10   0.04   0.03    -0.05   0.16  -0.03
  28   1    -0.02   0.03  -0.06    -0.00  -0.01   0.07    -0.04   0.03   0.03
  29   1    -0.03   0.02   0.01     0.03   0.02  -0.02    -0.01   0.05   0.01
  30   6    -0.11  -0.12  -0.12    -0.02  -0.05  -0.06    -0.00   0.03  -0.01
  31   8    -0.19  -0.06  -0.21    -0.02  -0.04  -0.11    -0.03   0.07  -0.04
  32   7    -0.09  -0.22  -0.09    -0.04  -0.12  -0.05    -0.01   0.03  -0.00
  33   1    -0.06  -0.03  -0.05    -0.04  -0.01  -0.04     0.03  -0.02   0.01
  34   1    -0.04  -0.04  -0.03    -0.04  -0.00  -0.02     0.04  -0.04   0.03
  35   7    -0.09  -0.17  -0.10    -0.03  -0.03  -0.04     0.04   0.00   0.03
  36   1     0.02  -0.08   0.00     0.02  -0.04   0.02    -0.03   0.03  -0.01
  37   1    -0.01  -0.05  -0.02     0.02  -0.02   0.01    -0.02   0.04  -0.01
  38   6    -0.00  -0.02  -0.02    -0.00  -0.07  -0.09     0.04  -0.04   0.06
  39   8    -0.01   0.07   0.14    -0.11  -0.15  -0.28    -0.02  -0.01   0.12
  40   7     0.06  -0.15  -0.29     0.03  -0.15   0.00     0.06  -0.09   0.04
  41   1     0.01  -0.01  -0.03     0.01  -0.05  -0.02     0.02  -0.02   0.01
  42   1     0.01  -0.04  -0.08     0.01  -0.01   0.04     0.02  -0.03   0.01
  43   7    -0.04  -0.02   0.04     0.06   0.14   0.03     0.08  -0.04   0.02
  44   1    -0.01  -0.02  -0.02     0.05   0.03   0.00     0.03  -0.02  -0.01
  45   1    -0.02   0.02   0.06     0.02   0.03  -0.05     0.02  -0.00   0.00
  46   6     0.02  -0.03  -0.05    -0.11   0.00   0.06     0.13  -0.09  -0.05
  47   8     0.05  -0.05  -0.09    -0.11  -0.00   0.04     0.33  -0.33  -0.09
  48   7     0.02   0.03  -0.05    -0.10   0.01   0.10     0.17   0.18   0.04
  49   1     0.01   0.02  -0.02    -0.02   0.00   0.03     0.10   0.05   0.02
  50   1     0.00   0.01  -0.01    -0.03   0.00   0.03     0.01   0.10   0.03
  51   7    -0.00  -0.08  -0.03    -0.14  -0.00   0.07    -0.07  -0.07  -0.08
  52   1    -0.00  -0.03   0.00    -0.05   0.01   0.01    -0.06   0.02  -0.02
  53   1     0.00  -0.02  -0.01    -0.05   0.00   0.00    -0.03  -0.05  -0.04
                     22                     23                     24
                        a                      a                      a 
 Frequencies --   148.0554               150.5782               171.4098
 Red. masses --     4.1430                12.0126                13.1256
 Frc consts  --     0.0000                 0.0000                 0.0000
 IR Inten    --     4.1972                 4.9092                16.9741
 Raman Activ --     0.0000                 0.0000                 0.0000
 Depolar     --     0.0000                 0.0000                 0.0000
 Atom AN      X      Y      Z        X      Y      Z        X      Y      Z
   1   8     0.01  -0.02   0.03    -0.00   0.02   0.03     0.08   0.01   0.08
   2   6    -0.02  -0.02  -0.01    -0.03   0.02  -0.01    -0.00  -0.00  -0.01
   3   1    -0.00  -0.01  -0.01    -0.01  -0.00  -0.01     0.01  -0.01  -0.02
   4   1    -0.02  -0.00  -0.00    -0.02   0.01  -0.01    -0.02   0.01  -0.00
   5   6    -0.03  -0.02  -0.02    -0.04   0.04   0.00    -0.02   0.01  -0.00
   6   1    -0.01  -0.01  -0.00    -0.01   0.02   0.01    -0.01   0.00   0.00
   7   1    -0.01  -0.01  -0.01    -0.02   0.02  -0.01    -0.00   0.01  -0.00
   8   7    -0.02  -0.03  -0.03    -0.02   0.02   0.03    -0.03   0.00   0.02
   9   6     0.00  -0.00  -0.03     0.01   0.02   0.05    -0.02   0.00   0.03
  10   1     0.00   0.00  -0.01     0.01   0.02   0.02    -0.01  -0.01   0.01
  11   1     0.01  -0.01  -0.01     0.01  -0.00   0.02    -0.01   0.01  -0.00
  12   1    -0.00   0.00  -0.01    -0.00   0.00   0.01     0.00   0.00   0.01
  13   6    -0.01  -0.03  -0.03    -0.01   0.02   0.04    -0.03   0.01   0.02
  14   1    -0.00  -0.01  -0.01    -0.00   0.01   0.01    -0.01   0.01   0.01
  15   1    -0.00  -0.01  -0.01    -0.01   0.00   0.01    -0.01   0.00   0.01
  16   1    -0.01  -0.01  -0.01     0.00   0.00   0.01    -0.01   0.00   0.01
  17   6    -0.02  -0.02  -0.03    -0.03  -0.03   0.01    -0.03  -0.01   0.00
  18   1    -0.00  -0.00  -0.01    -0.02  -0.02   0.00    -0.01   0.00  -0.00
  19   1    -0.01  -0.01  -0.01    -0.01  -0.00   0.00    -0.01  -0.01  -0.00
  20   1    -0.01  -0.01  -0.00     0.00  -0.01   0.00    -0.01  -0.00   0.01
  21   1    -0.00  -0.00   0.01    -0.00  -0.00   0.01     0.01   0.00   0.03
  22   6    -0.02   0.05   0.00     0.10  -0.18   0.01     0.21  -0.08   0.11
  23   8     0.05   0.05   0.03    -0.17  -0.19  -0.06     0.42  -0.16   0.34
  24   7    -0.07  -0.02  -0.01     0.28   0.05   0.04     0.06  -0.34  -0.11
  25   1    -0.01  -0.02  -0.01     0.04   0.07   0.02     0.05  -0.17   0.00
  26   1    -0.03  -0.00  -0.01     0.13   0.01   0.04    -0.06  -0.08  -0.07
  27   7    -0.05   0.11  -0.01     0.21  -0.43   0.04     0.11   0.14   0.04
  28   1    -0.02   0.03  -0.00     0.09  -0.11  -0.00    -0.01   0.06  -0.04
  29   1    -0.01   0.04   0.00     0.05  -0.13  -0.01     0.05   0.06   0.03
  30   6     0.03   0.03   0.02    -0.00   0.00  -0.00     0.00  -0.00  -0.00
  31   8     0.02   0.04   0.01    -0.01   0.02  -0.02     0.01  -0.00   0.00
  32   7     0.19  -0.17   0.12     0.04  -0.05   0.02    -0.01   0.00  -0.00
  33   1    -0.24   0.24  -0.14    -0.06   0.06  -0.04     0.01  -0.01   0.00
  34   1    -0.28   0.32  -0.16    -0.07   0.07  -0.04     0.01  -0.01   0.00
  35   7    -0.19   0.22  -0.11    -0.05   0.04  -0.03     0.00   0.00   0.00
  36   1     0.35  -0.28   0.23     0.08  -0.07   0.06    -0.00   0.00  -0.00
  37   1     0.27  -0.23   0.17     0.06  -0.06   0.04     0.00   0.00   0.00
  38   6     0.01  -0.04   0.02    -0.02   0.17  -0.05    -0.21   0.10  -0.09
  39   8    -0.01  -0.05   0.01     0.06   0.25   0.05    -0.11   0.13  -0.03
  40   7     0.01  -0.06   0.03    -0.04   0.26  -0.14    -0.24   0.17  -0.14
  41   1     0.00  -0.01   0.02    -0.01   0.05  -0.06    -0.06   0.05  -0.05
  42   1     0.00  -0.00   0.02    -0.01   0.03  -0.09    -0.06   0.03  -0.06
  43   7     0.01  -0.03   0.03    -0.05   0.09  -0.13    -0.31  -0.02  -0.11
  44   1     0.01  -0.01   0.00    -0.03   0.04  -0.00    -0.12   0.01  -0.01
  45   1     0.00  -0.01  -0.00    -0.02   0.05   0.02    -0.08  -0.01   0.02
  46   6     0.03   0.00  -0.01    -0.06  -0.05   0.01     0.04   0.01  -0.03
  47   8     0.02   0.01   0.02     0.08  -0.18  -0.11    -0.00   0.06   0.00
  48   7     0.02  -0.01  -0.03    -0.01   0.14   0.16     0.02  -0.04  -0.08
  49   1    -0.00  -0.01  -0.01     0.05   0.04   0.05    -0.01  -0.01  -0.03
  50   1     0.01  -0.00  -0.02    -0.03   0.06   0.08     0.02  -0.02  -0.03
  51   7     0.06   0.01  -0.01    -0.25  -0.09   0.01     0.10   0.01  -0.02
  52   1     0.02   0.00  -0.00    -0.09  -0.01   0.01     0.04  -0.01   0.00
  53   1     0.02   0.00   0.00    -0.07  -0.03  -0.02     0.03   0.00   0.00
                     25                     26                     27
                        a                      a                      a 
 Frequencies --   187.9751               199.7173               207.2695
 Red. masses --    12.6242                10.8966                12.9411
 Frc consts  --     0.0000                 0.0000                 0.0000
 IR Inten    --    16.5393                 8.5144                57.1189
 Raman Activ --     0.0000                 0.0000                 0.0000
 Depolar     --     0.0000                 0.0000                 0.0000
 Atom AN      X      Y      Z        X      Y      Z        X      Y      Z
   1   8     0.28  -0.31   0.30    -0.44  -0.41  -0.18    -0.08  -0.10  -0.03
   2   6     0.20  -0.08   0.10     0.01   0.04   0.10     0.00   0.00   0.01
   3   1     0.10   0.01  -0.01     0.01   0.11   0.09     0.00   0.02   0.01
   4   1     0.07  -0.04   0.04     0.14  -0.04   0.02     0.03  -0.01  -0.00
   5   6    -0.16   0.07   0.08    -0.17   0.16   0.11    -0.04   0.04   0.02
   6   1    -0.10   0.03   0.11    -0.08   0.06   0.09    -0.02   0.01   0.02
   7   1    -0.10   0.06  -0.05    -0.09   0.05  -0.02    -0.02   0.01  -0.00
   8   7    -0.03   0.03   0.03     0.02   0.12  -0.01     0.01   0.03  -0.01
   9   6     0.09   0.14   0.05     0.15   0.24   0.00     0.04   0.06  -0.00
  10   1     0.05   0.10   0.01     0.12   0.23  -0.03     0.03   0.05  -0.01
  11   1     0.07   0.00   0.03     0.12  -0.03   0.11     0.03  -0.01   0.02
  12   1    -0.02   0.04  -0.00    -0.09   0.03  -0.08    -0.02   0.01  -0.02
  13   6     0.01  -0.07  -0.03     0.09  -0.04  -0.11     0.03  -0.01  -0.03
  14   1     0.01  -0.04  -0.03     0.04  -0.05  -0.07     0.01  -0.01  -0.02
  15   1     0.01  -0.04   0.01     0.05  -0.04   0.01     0.01  -0.01   0.00
  16   1    -0.00  -0.01  -0.03     0.01   0.01  -0.05     0.00   0.00  -0.01
  17   6    -0.04  -0.05   0.01     0.02   0.03  -0.06     0.01  -0.00  -0.02
  18   1    -0.07  -0.09   0.02    -0.07  -0.09   0.00    -0.01  -0.02   0.00
  19   1    -0.02   0.06   0.05    -0.00   0.10   0.05    -0.00   0.02   0.01
  20   1     0.05  -0.03  -0.07     0.09  -0.00  -0.11     0.02  -0.00  -0.02
  21   1     0.04  -0.09   0.12    -0.07  -0.09  -0.08    -0.01  -0.02  -0.01
  22   6     0.01   0.00  -0.03     0.01   0.00   0.00     0.06  -0.03  -0.02
  23   8     0.02   0.02  -0.09     0.07  -0.01   0.02    -0.02  -0.01  -0.10
  24   7     0.01  -0.00   0.01    -0.03  -0.07  -0.03     0.13   0.08   0.04
  25   1     0.00   0.00  -0.02     0.00  -0.04  -0.00     0.02   0.06  -0.01
  26   1     0.00   0.00  -0.00    -0.03  -0.02  -0.01     0.07   0.02   0.02
  27   7     0.01  -0.00   0.00    -0.01   0.05  -0.01     0.09  -0.11  -0.00
  28   1     0.00  -0.00   0.01    -0.01   0.01  -0.01     0.03  -0.04   0.05
  29   1     0.00  -0.00  -0.01     0.00   0.02  -0.00     0.01  -0.05   0.03
  30   6    -0.01   0.00   0.00    -0.02  -0.00   0.00    -0.01   0.00   0.00
  31   8    -0.02   0.01   0.00    -0.03   0.00  -0.00    -0.01   0.00   0.00
  32   7     0.00   0.01   0.01    -0.01  -0.00   0.00     0.00  -0.00   0.00
  33   1    -0.00   0.00   0.00     0.00  -0.00   0.00    -0.00   0.00  -0.00
  34   1     0.00   0.00   0.00     0.00  -0.01   0.00    -0.00   0.00  -0.00
  35   7    -0.00  -0.01   0.00    -0.01  -0.02  -0.01    -0.00  -0.01  -0.00
  36   1    -0.00  -0.00  -0.00    -0.00  -0.00  -0.01    -0.00   0.00  -0.00
  37   1    -0.01   0.00  -0.00    -0.01  -0.00  -0.01    -0.01   0.00  -0.00
  38   6     0.02  -0.01   0.00     0.04  -0.01  -0.03    -0.22   0.03   0.08
  39   8    -0.01  -0.02  -0.03     0.13  -0.04  -0.06    -0.55   0.18   0.23
  40   7     0.03  -0.02   0.02    -0.00   0.09  -0.03    -0.09  -0.31   0.12
  41   1     0.01  -0.01  -0.01     0.01   0.03  -0.02    -0.06  -0.11   0.06
  42   1     0.01  -0.01  -0.00    -0.02   0.03  -0.01     0.04  -0.12   0.01
  43   7     0.06   0.01  -0.04    -0.05  -0.05   0.05     0.07   0.20  -0.18
  44   1     0.01   0.04   0.06    -0.03  -0.02  -0.01     0.11   0.04  -0.05
  45   1     0.00   0.04   0.03     0.00  -0.05  -0.00    -0.02   0.17  -0.04
  46   6    -0.11   0.11  -0.13     0.04  -0.04   0.06     0.12  -0.01  -0.03
  47   8    -0.20   0.40  -0.35     0.10  -0.16   0.12     0.06   0.03   0.08
  48   7    -0.03  -0.11   0.04     0.04   0.09   0.04     0.06  -0.04  -0.18
  49   1    -0.04   0.07  -0.06     0.04  -0.03   0.05    -0.01  -0.03  -0.04
  50   1    -0.01  -0.01  -0.00     0.01  -0.00   0.04     0.04  -0.04  -0.07
  51   7    -0.14  -0.09  -0.04     0.03   0.05   0.02     0.24  -0.02   0.01
  52   1    -0.00  -0.10   0.07    -0.01   0.04  -0.02     0.06   0.02  -0.03
  53   1    -0.04  -0.01  -0.02     0.01   0.00   0.01     0.07   0.03  -0.02
                     28                     29                     30
                        a                      a                      a 
 Frequencies --   236.0003               243.2716               268.7358
 Red. masses --     3.1429                 2.2525                 5.7747
 Frc consts  --     0.0000                 0.0000                 0.0000
 IR Inten    --   264.1072                93.4784                16.3473
 Raman Activ --     0.0000                 0.0000                 0.0000
 Depolar     --     0.0000                 0.0000                 0.0000
 Atom AN      X      Y      Z        X      Y      Z        X      Y      Z
   1   8     0.03   0.01   0.01    -0.00  -0.01   0.01     0.13   0.32  -0.15
   2   6     0.02   0.00   0.01    -0.01  -0.00   0.00     0.23   0.06   0.12
   3   1     0.01   0.01   0.00    -0.00  -0.00  -0.00     0.08   0.12   0.09
   4   1     0.01  -0.00   0.01    -0.00   0.00  -0.00     0.11  -0.07   0.12
   5   6     0.00  -0.00  -0.00    -0.00   0.00   0.01     0.03  -0.07  -0.11
   6   1    -0.00  -0.00   0.00    -0.00   0.00   0.01    -0.02  -0.05  -0.02
   7   1    -0.00   0.00  -0.00    -0.01   0.00  -0.00     0.01   0.00  -0.04
   8   7     0.00  -0.01   0.00     0.01  -0.00   0.01    -0.09  -0.07  -0.04
   9   6     0.01  -0.01   0.00     0.01   0.00   0.01    -0.09  -0.15   0.03
  10   1     0.01   0.01  -0.00    -0.00  -0.01   0.00     0.07   0.14  -0.04
  11   1     0.01  -0.01   0.01     0.00   0.00  -0.00     0.04  -0.16   0.18
  12   1    -0.01  -0.01  -0.01     0.01   0.00   0.01    -0.19  -0.12  -0.11
  13   6    -0.00   0.00   0.01     0.01  -0.01   0.00    -0.09   0.09   0.10
  14   1     0.00  -0.02  -0.01     0.00   0.00   0.01    -0.01  -0.09  -0.06
  15   1     0.02   0.01   0.02    -0.01  -0.01  -0.01     0.10   0.10   0.10
  16   1    -0.02   0.01   0.00     0.01  -0.01  -0.00    -0.17   0.09   0.06
  17   6     0.00  -0.02  -0.00     0.01   0.01   0.01    -0.14  -0.22  -0.04
  18   1    -0.01  -0.02   0.00     0.01   0.02  -0.00    -0.20  -0.32   0.06
  19   1    -0.00   0.01   0.01     0.00  -0.01  -0.01    -0.08   0.18   0.15
  20   1     0.01  -0.01  -0.02    -0.01   0.00   0.02     0.15  -0.09  -0.23
  21   1     0.00  -0.01   0.00    -0.00  -0.00   0.00     0.05   0.04  -0.09
  22   6     0.01  -0.02  -0.00     0.01  -0.00   0.02    -0.00   0.01  -0.00
  23   8    -0.02  -0.03  -0.00     0.03   0.02  -0.07     0.00   0.01  -0.00
  24   7     0.03  -0.02   0.03    -0.01   0.09  -0.26    -0.00   0.01  -0.01
  25   1     0.01   0.02  -0.06    -0.01  -0.13   0.48    -0.00  -0.01   0.03
  26   1     0.02   0.02  -0.09    -0.07  -0.22   0.71    -0.01  -0.01   0.04
  27   7     0.02  -0.04  -0.01    -0.00  -0.02  -0.01    -0.00   0.00   0.01
  28   1    -0.00  -0.03   0.06     0.04   0.07  -0.25     0.00   0.01  -0.03
  29   1     0.00  -0.02   0.03     0.02   0.02  -0.11     0.00   0.00  -0.01
  30   6    -0.00   0.00  -0.00    -0.00   0.00  -0.00    -0.00   0.01  -0.00
  31   8    -0.00   0.00  -0.00    -0.00   0.00  -0.00    -0.00   0.02  -0.01
  32   7     0.00  -0.00   0.00     0.01  -0.01   0.00     0.01   0.00   0.00
  33   1    -0.00   0.00  -0.00    -0.01   0.01  -0.00    -0.00   0.01  -0.00
  34   1    -0.00   0.01  -0.00    -0.01   0.01  -0.01    -0.00   0.01  -0.00
  35   7     0.00  -0.00  -0.00     0.01  -0.01   0.00     0.01   0.01   0.01
  36   1    -0.00   0.00  -0.00    -0.01   0.01  -0.01     0.00   0.00   0.01
  37   1    -0.00   0.00  -0.00    -0.01   0.01  -0.00     0.00   0.01   0.00
  38   6    -0.01   0.00  -0.03    -0.01  -0.00   0.02    -0.00  -0.00  -0.00
  39   8    -0.01   0.06   0.07    -0.02   0.02   0.05    -0.01  -0.00   0.00
  40   7    -0.03   0.02  -0.01    -0.01  -0.01   0.02     0.00  -0.01  -0.01
  41   1    -0.02   0.05   0.06     0.00  -0.00   0.00     0.00   0.00   0.01
  42   1    -0.03   0.10   0.12    -0.00  -0.00   0.01    -0.00  -0.00  -0.00
  43   7    -0.10   0.15   0.31    -0.02  -0.00   0.04    -0.00  -0.01  -0.00
  44   1     0.12  -0.33  -0.62     0.01  -0.05  -0.09    -0.01   0.01   0.02
  45   1     0.07  -0.25  -0.43     0.01  -0.04  -0.05    -0.00   0.01   0.02
  46   6    -0.00   0.03  -0.05    -0.00   0.01  -0.01    -0.00  -0.01   0.02
  47   8    -0.00   0.03  -0.06     0.00   0.01  -0.02    -0.00  -0.00   0.03
  48   7     0.02  -0.08   0.03     0.01  -0.02   0.01    -0.01   0.05  -0.03
  49   1    -0.01   0.07  -0.05    -0.00   0.02  -0.02     0.01  -0.06   0.04
  50   1    -0.02   0.12  -0.07    -0.01   0.04  -0.02     0.02  -0.10   0.06
  51   7    -0.01  -0.02  -0.01    -0.00  -0.00  -0.01     0.03   0.02   0.01
  52   1     0.00  -0.01   0.00     0.00  -0.01   0.00    -0.00   0.03  -0.02
  53   1    -0.00   0.03  -0.02    -0.00   0.00  -0.00     0.01   0.01   0.00
                     31                     32                     33
                        a                      a                      a 
 Frequencies --   281.3949               299.5931               316.1696
 Red. masses --     3.0365                 7.5232                 4.6593
 Frc consts  --     0.0000                 0.0000                 0.0000
 IR Inten    --   144.3219                 0.2706               137.9314
 Raman Activ --     0.0000                 0.0000                 0.0000
 Depolar     --     0.0000                 0.0000                 0.0000
 Atom AN      X      Y      Z        X      Y      Z        X      Y      Z
   1   8     0.07  -0.04   0.03     0.12   0.10  -0.14    -0.03  -0.07   0.24
   2   6     0.03  -0.03  -0.02    -0.13  -0.14  -0.27    -0.17   0.00  -0.02
   3   1     0.01  -0.02  -0.02    -0.06  -0.15  -0.12    -0.05  -0.07  -0.05
   4   1    -0.00   0.00  -0.01    -0.13   0.05  -0.13    -0.11   0.06  -0.04
   5   6    -0.03   0.01   0.02     0.09  -0.04   0.03     0.02  -0.01   0.01
   6   1    -0.02   0.01   0.02     0.05   0.01  -0.02     0.02   0.02  -0.01
   7   1    -0.02   0.01  -0.01     0.06   0.01   0.02     0.00  -0.04   0.02
   8   7    -0.01   0.00   0.03    -0.00  -0.03   0.14     0.08  -0.01  -0.05
   9   6     0.04   0.06   0.02     0.21   0.14   0.21    -0.10  -0.18  -0.09
  10   1    -0.03  -0.05   0.04     0.09   0.15   0.07     0.11   0.16  -0.12
  11   1    -0.00   0.06  -0.07     0.15  -0.02   0.09     0.00  -0.18   0.22
  12   1     0.08   0.06   0.06     0.00   0.04   0.04    -0.24  -0.17  -0.20
  13   6    -0.02  -0.05  -0.02    -0.29  -0.26  -0.19     0.10   0.09   0.04
  14   1    -0.01   0.01   0.02    -0.12  -0.28  -0.13     0.05  -0.09  -0.09
  15   1    -0.04  -0.04  -0.02     0.01  -0.07   0.04     0.16   0.09   0.10
  16   1     0.04  -0.03  -0.02    -0.21   0.06  -0.16    -0.12   0.09   0.05
  17   6    -0.01  -0.00   0.02     0.04   0.22   0.21     0.14   0.16  -0.04
  18   1     0.01   0.03  -0.00    -0.01  -0.03   0.13     0.10   0.13  -0.03
  19   1    -0.00  -0.03  -0.01     0.00   0.17   0.13     0.07  -0.03  -0.05
  20   1    -0.02  -0.00   0.04     0.03   0.10  -0.06    -0.03   0.07   0.04
  21   1     0.04   0.03   0.01     0.04   0.07  -0.01    -0.03  -0.01   0.10
  22   6     0.00  -0.00  -0.00    -0.00   0.00   0.01    -0.00   0.00  -0.00
  23   8    -0.00  -0.00  -0.01    -0.00   0.00   0.01    -0.00   0.00  -0.00
  24   7     0.01   0.00  -0.00    -0.00   0.01  -0.00    -0.00  -0.00   0.01
  25   1     0.00  -0.00   0.01    -0.00   0.00   0.00    -0.00   0.00  -0.01
  26   1     0.00  -0.00   0.02     0.00   0.00   0.00    -0.00   0.00  -0.01
  27   7     0.00  -0.01  -0.00    -0.00   0.01  -0.00    -0.00  -0.01   0.00
  28   1     0.00  -0.00  -0.00    -0.00  -0.00   0.01     0.00  -0.00  -0.00
  29   1     0.00  -0.00  -0.00    -0.00   0.00   0.00     0.00  -0.00  -0.00
  30   6    -0.00   0.00   0.00     0.00  -0.01   0.01    -0.04   0.04  -0.04
  31   8    -0.00  -0.00   0.00     0.01  -0.02   0.01     0.00  -0.00  -0.00
  32   7     0.01  -0.01   0.01    -0.01   0.00   0.00     0.10  -0.14   0.05
  33   1    -0.01   0.01  -0.00     0.00  -0.00   0.01    -0.12   0.11  -0.07
  34   1    -0.01   0.02  -0.01     0.00   0.00  -0.00    -0.20   0.22  -0.13
  35   7     0.01  -0.01   0.00    -0.01  -0.01  -0.00     0.12  -0.08   0.07
  36   1    -0.01   0.01  -0.01    -0.00   0.00  -0.01    -0.20   0.18  -0.14
  37   1    -0.01   0.01  -0.00    -0.00  -0.01  -0.00    -0.10   0.10  -0.06
  38   6     0.00  -0.00   0.00     0.00  -0.00  -0.00     0.00  -0.00  -0.01
  39   8     0.01   0.00   0.02     0.00  -0.00  -0.00     0.00   0.00  -0.01
  40   7    -0.00   0.00   0.00    -0.00   0.01   0.01     0.00   0.00  -0.01
  41   1    -0.00   0.01   0.01     0.00  -0.00  -0.00    -0.00   0.01   0.01
  42   1    -0.01   0.03   0.04     0.00  -0.01  -0.01     0.00  -0.01  -0.01
  43   7    -0.01   0.02   0.06     0.00   0.00   0.00    -0.01  -0.00   0.00
  44   1     0.03  -0.07  -0.13     0.00   0.00   0.01    -0.01   0.00   0.00
  45   1     0.01  -0.04  -0.08    -0.00   0.00   0.00    -0.00   0.00   0.01
  46   6    -0.02  -0.04  -0.00     0.00  -0.00   0.01    -0.00   0.01  -0.01
  47   8    -0.04   0.04  -0.05     0.00  -0.01   0.01    -0.01   0.04  -0.03
  48   7    -0.05   0.29  -0.18    -0.01  -0.01  -0.00    -0.00   0.03  -0.02
  49   1     0.07  -0.34   0.23    -0.01   0.01  -0.01     0.00  -0.03   0.02
  50   1     0.13  -0.64   0.37    -0.01   0.02  -0.02     0.02  -0.09   0.05
  51   7    -0.02  -0.01  -0.01    -0.00   0.00   0.00    -0.02  -0.01  -0.01
  52   1    -0.05   0.09  -0.09     0.00  -0.00   0.00    -0.01  -0.00   0.00
  53   1    -0.02   0.04  -0.04    -0.00  -0.00   0.00    -0.01  -0.00  -0.01
                     34                     35                     36
                        a                      a                      a 
 Frequencies --   318.9345               338.7386               364.7985
 Red. masses --     4.2281                 3.1664                 3.6006
 Frc consts  --     0.0000                 0.0000                 0.0000
 IR Inten    --   414.0490                 9.0618                 2.3397
 Raman Activ --     0.0000                 0.0000                 0.0000
 Depolar     --     0.0000                 0.0000                 0.0000
 Atom AN      X      Y      Z        X      Y      Z        X      Y      Z
   1   8     0.03   0.06  -0.18    -0.09  -0.08   0.09     0.05   0.12  -0.15
   2   6     0.13  -0.00   0.02    -0.09   0.12  -0.05     0.19   0.08   0.06
   3   1     0.04   0.05   0.04    -0.00   0.04  -0.04     0.08   0.13   0.06
   4   1     0.08  -0.04   0.03    -0.03   0.04  -0.03     0.13  -0.06   0.08
   5   6    -0.01  -0.00  -0.02    -0.09   0.14  -0.03    -0.19   0.10  -0.06
   6   1    -0.02  -0.02   0.00    -0.03   0.07   0.02    -0.11   0.04   0.08
   7   1     0.00   0.02  -0.01    -0.06   0.03  -0.04    -0.10   0.08  -0.10
   8   7    -0.07   0.00   0.02     0.07   0.02  -0.01    -0.10  -0.02   0.01
   9   6     0.07   0.13   0.06    -0.09  -0.21   0.02     0.01  -0.03   0.15
  10   1    -0.05  -0.06   0.07    -0.20  -0.38   0.09    -0.04  -0.04   0.09
  11   1     0.02   0.09  -0.11    -0.19   0.13  -0.21     0.00   0.01   0.00
  12   1     0.13   0.10   0.11     0.26  -0.00   0.16     0.07  -0.01   0.07
  13   6    -0.09  -0.07  -0.04     0.16  -0.02  -0.01     0.07  -0.18  -0.03
  14   1    -0.05   0.10   0.10     0.08  -0.17  -0.15     0.08  -0.30  -0.24
  15   1    -0.16  -0.08  -0.10     0.21   0.03   0.14     0.25  -0.01   0.21
  16   1     0.12  -0.10  -0.04    -0.12   0.10  -0.00    -0.22   0.10  -0.02
  17   6    -0.12  -0.10   0.03     0.12   0.10  -0.02    -0.11  -0.04  -0.00
  18   1    -0.06  -0.06   0.02    -0.10  -0.20   0.07     0.13   0.27  -0.09
  19   1    -0.05  -0.00   0.02     0.04   0.27   0.16     0.01  -0.28  -0.18
  20   1     0.00  -0.05  -0.00     0.17   0.05  -0.25    -0.22  -0.00   0.26
  21   1     0.03   0.01  -0.07    -0.04  -0.02   0.05     0.02  -0.00  -0.07
  22   6     0.00  -0.00   0.01     0.00   0.00  -0.00    -0.00   0.00   0.01
  23   8     0.01  -0.00   0.01     0.00   0.00  -0.00     0.00   0.01  -0.00
  24   7    -0.00  -0.01  -0.00    -0.00  -0.00  -0.00    -0.00  -0.00  -0.01
  25   1     0.00  -0.00  -0.01     0.00  -0.00  -0.00     0.00  -0.00  -0.00
  26   1    -0.00   0.00  -0.02    -0.00  -0.00   0.00    -0.01  -0.00  -0.00
  27   7     0.00   0.01  -0.01     0.00  -0.00   0.00     0.01   0.00  -0.01
  28   1    -0.01  -0.00   0.03     0.00  -0.00  -0.00     0.00  -0.01   0.03
  29   1    -0.00   0.00   0.01     0.00  -0.00  -0.00    -0.00  -0.01   0.00
  30   6    -0.07   0.06  -0.04    -0.00  -0.00   0.01     0.01  -0.00  -0.01
  31   8    -0.02  -0.00   0.02     0.01  -0.02   0.02     0.01  -0.00  -0.00
  32   7     0.16  -0.18   0.09     0.02  -0.02   0.01     0.00  -0.01  -0.01
  33   1    -0.16   0.17  -0.08    -0.02   0.02  -0.01    -0.00  -0.00  -0.01
  34   1    -0.28   0.34  -0.19    -0.04   0.06  -0.03    -0.01   0.00  -0.00
  35   7     0.16  -0.13   0.11     0.01  -0.01   0.01     0.01   0.01   0.01
  36   1    -0.29   0.26  -0.21    -0.04   0.03  -0.03    -0.01   0.01  -0.01
  37   1    -0.15   0.13  -0.09    -0.02   0.01  -0.01     0.01   0.00   0.00
  38   6     0.00  -0.00   0.00     0.00  -0.00  -0.01     0.00  -0.01  -0.01
  39   8     0.00  -0.00  -0.00    -0.00  -0.00  -0.00    -0.01  -0.01  -0.01
  40   7    -0.00   0.01   0.02     0.00   0.00  -0.01    -0.00   0.01   0.00
  41   1     0.00  -0.01  -0.01     0.00   0.01   0.01     0.00   0.00   0.00
  42   1     0.00  -0.01  -0.01     0.01  -0.02  -0.02     0.01  -0.03  -0.04
  43   7     0.00  -0.00  -0.00    -0.00   0.00   0.00    -0.00   0.00   0.01
  44   1    -0.00   0.01   0.01    -0.00   0.00   0.01    -0.00   0.01   0.01
  45   1     0.00   0.00   0.00    -0.00   0.00   0.01    -0.00   0.00   0.00
  46   6     0.00  -0.01   0.01     0.00  -0.01  -0.01    -0.00  -0.01  -0.00
  47   8     0.01  -0.03   0.03     0.01  -0.02   0.00     0.00  -0.02   0.01
  48   7     0.01  -0.03   0.02     0.01   0.00   0.00     0.01   0.00   0.02
  49   1    -0.00   0.03  -0.02     0.00   0.00  -0.00     0.01   0.01   0.00
  50   1    -0.02   0.09  -0.05    -0.00   0.01   0.00    -0.01   0.04  -0.01
  51   7     0.01   0.01   0.00    -0.01  -0.00  -0.01     0.03   0.00   0.00
  52   1     0.01  -0.01   0.01    -0.00  -0.00   0.00     0.00   0.01  -0.01
  53   1     0.01  -0.00   0.01    -0.00  -0.00  -0.00     0.01   0.00   0.00
                     37                     38                     39
                        a                      a                      a 
 Frequencies --   378.8103               402.4022               428.6713
 Red. masses --     6.2952                 3.3930                 3.4401
 Frc consts  --     0.0000                 0.0000                 0.0000
 IR Inten    --     5.0591               105.7422               257.8996
 Raman Activ --     0.0000                 0.0000                 0.0000
 Depolar     --     0.0000                 0.0000                 0.0000
 Atom AN      X      Y      Z        X      Y      Z        X      Y      Z
   1   8     0.05   0.09  -0.02     0.00   0.01  -0.02    -0.04  -0.05   0.05
   2   6     0.07   0.15  -0.04     0.01   0.01  -0.01     0.00   0.06   0.02
   3   1     0.06   0.12  -0.01     0.01   0.01  -0.00     0.00   0.02   0.01
   4   1     0.05  -0.01   0.04     0.01  -0.00   0.00     0.01   0.01   0.01
   5   6    -0.20   0.14  -0.13    -0.03   0.01  -0.02     0.04   0.00  -0.04
   6   1    -0.09   0.09   0.05    -0.01   0.00   0.01     0.03  -0.00  -0.04
   7   1    -0.13   0.05  -0.11    -0.02  -0.01  -0.01     0.02  -0.02   0.02
   8   7    -0.01  -0.06  -0.05    -0.01   0.00  -0.01     0.04   0.02  -0.09
   9   6    -0.06  -0.37   0.16     0.01  -0.00   0.02     0.08  -0.07   0.03
  10   1     0.01  -0.00   0.07    -0.00  -0.00   0.02     0.01  -0.01   0.04
  11   1    -0.01  -0.17   0.19     0.01  -0.00   0.00     0.03  -0.03   0.02
  12   1    -0.06  -0.22  -0.06     0.02  -0.01   0.01     0.05  -0.04   0.00
  13   6     0.11  -0.25  -0.14     0.01  -0.02  -0.02    -0.02   0.07  -0.08
  14   1     0.03   0.14   0.09     0.00  -0.01  -0.01    -0.01   0.02  -0.01
  15   1    -0.18  -0.21  -0.15     0.01  -0.01   0.01    -0.02   0.03  -0.04
  16   1     0.28  -0.20  -0.09    -0.00   0.00  -0.01     0.00   0.01  -0.02
  17   6     0.00   0.27   0.13    -0.01   0.03   0.01    -0.10  -0.02   0.08
  18   1     0.05   0.07   0.10     0.01   0.02   0.01     0.00  -0.01   0.06
  19   1     0.02   0.14   0.08    -0.00  -0.00  -0.00    -0.08  -0.00   0.00
  20   1    -0.06   0.14  -0.02    -0.02   0.01   0.01    -0.04  -0.01   0.05
  21   1    -0.01  -0.02  -0.00    -0.00  -0.01  -0.01    -0.01   0.00   0.02
  22   6     0.00  -0.00   0.02     0.02   0.02  -0.14     0.00   0.03  -0.06
  23   8     0.00  -0.00   0.01     0.02   0.00  -0.06     0.02   0.01  -0.02
  24   7     0.00  -0.00  -0.01    -0.01  -0.05   0.18    -0.02  -0.01   0.10
  25   1     0.00  -0.00   0.00    -0.00   0.02  -0.07    -0.01   0.02  -0.03
  26   1    -0.00   0.00  -0.01     0.02   0.05  -0.14     0.01   0.04  -0.09
  27   7     0.00   0.02  -0.01    -0.04  -0.09   0.23    -0.04  -0.03   0.12
  28   1    -0.01  -0.01   0.05     0.09   0.19  -0.69     0.05   0.12  -0.41
  29   1    -0.00  -0.00   0.01     0.03   0.04  -0.08     0.00   0.01  -0.00
  30   6    -0.00  -0.00  -0.00    -0.00  -0.00   0.00     0.00   0.00  -0.00
  31   8    -0.01   0.00  -0.01     0.00  -0.00   0.00     0.00   0.00   0.00
  32   7    -0.00   0.02  -0.00     0.00  -0.00   0.00    -0.00  -0.00  -0.00
  33   1     0.01  -0.00   0.01    -0.00   0.00   0.00    -0.01   0.00  -0.01
  34   1     0.03  -0.03   0.01    -0.01   0.01  -0.01     0.01  -0.01   0.01
  35   7    -0.01   0.01  -0.00     0.00  -0.00   0.00    -0.00   0.00  -0.01
  36   1     0.02  -0.02   0.02    -0.01   0.01  -0.01     0.01  -0.00   0.00
  37   1     0.01  -0.00   0.01    -0.00  -0.00  -0.00     0.00  -0.01   0.00
  38   6    -0.00  -0.00   0.01    -0.02   0.07   0.07     0.01  -0.08  -0.06
  39   8    -0.00  -0.00   0.01     0.01   0.05   0.05    -0.03  -0.05  -0.03
  40   7    -0.01   0.01   0.01     0.03  -0.15  -0.09    -0.04   0.17   0.14
  41   1     0.00  -0.01  -0.02     0.01   0.03   0.05    -0.03  -0.02  -0.00
  42   1    -0.01   0.01   0.02    -0.08   0.29   0.37     0.14  -0.44  -0.54
  43   7     0.01   0.00  -0.00    -0.01  -0.05  -0.09     0.02   0.06   0.13
  44   1     0.01  -0.00  -0.01    -0.02  -0.00  -0.01     0.05  -0.04  -0.05
  45   1     0.00   0.00  -0.01    -0.01   0.01   0.05     0.02  -0.02  -0.08
  46   6     0.00  -0.00  -0.01     0.01  -0.02   0.01     0.03   0.00   0.02
  47   8    -0.00  -0.01   0.00     0.00  -0.01   0.02     0.03   0.00   0.03
  48   7     0.01   0.01   0.01     0.00   0.01  -0.00     0.01   0.02  -0.06
  49   1     0.01   0.01   0.00     0.00  -0.00   0.00    -0.01  -0.04   0.01
  50   1    -0.00   0.00   0.01    -0.00   0.02  -0.01     0.02  -0.03  -0.02
  51   7     0.02  -0.00  -0.00    -0.01   0.03  -0.03    -0.06   0.04  -0.04
  52   1    -0.00   0.02  -0.02     0.04  -0.07   0.06     0.07  -0.16   0.14
  53   1     0.00   0.00  -0.00     0.01  -0.01   0.02    -0.01   0.00   0.01
                     40                     41                     42
                        a                      a                      a 
 Frequencies --   434.1963               439.4647               444.3640
 Red. masses --     8.0276                 3.0070                 1.5420
 Frc consts  --     0.0000                 0.0000                 0.0000
 IR Inten    --    56.7372               276.4917                 4.5488
 Raman Activ --     0.0000                 0.0000                 0.0000
 Depolar     --     0.0000                 0.0000                 0.0000
 Atom AN      X      Y      Z        X      Y      Z        X      Y      Z
   1   8     0.11   0.13  -0.14    -0.00  -0.01   0.02     0.01   0.01  -0.02
   2   6     0.02  -0.10  -0.08    -0.01  -0.00   0.01    -0.00  -0.02  -0.01
   3   1     0.00  -0.04  -0.02    -0.00  -0.00   0.00     0.00  -0.00  -0.00
   4   1    -0.01  -0.01  -0.03    -0.01   0.00   0.00    -0.00  -0.01  -0.00
   5   6    -0.09   0.04   0.11     0.00  -0.01  -0.01    -0.02  -0.00   0.01
   6   1    -0.05   0.04   0.09    -0.00  -0.01   0.00    -0.01   0.00   0.01
   7   1    -0.04   0.07  -0.02    -0.00  -0.01  -0.00    -0.01   0.01  -0.01
   8   7    -0.12  -0.04   0.30     0.03  -0.00  -0.05    -0.02  -0.01   0.03
   9   6    -0.31   0.16  -0.05     0.06  -0.02  -0.01    -0.03   0.02  -0.01
  10   1    -0.02   0.03  -0.13     0.01  -0.01   0.01    -0.00   0.00  -0.01
  11   1    -0.11   0.06  -0.01     0.02  -0.00  -0.01    -0.00   0.01  -0.01
  12   1    -0.18   0.09  -0.02     0.03  -0.01   0.00    -0.01   0.01   0.00
  13   6     0.05  -0.26   0.22    -0.02   0.06  -0.03     0.01  -0.02   0.03
  14   1     0.05  -0.02   0.05    -0.01   0.01   0.00     0.01   0.00   0.01
  15   1    -0.03  -0.14   0.07    -0.00   0.03  -0.02    -0.00  -0.01   0.01
  16   1     0.08  -0.10   0.03    -0.01   0.02  -0.00     0.01  -0.01   0.01
  17   6     0.29   0.04  -0.24    -0.03   0.00   0.05     0.03   0.01  -0.02
  18   1    -0.02   0.03  -0.20     0.01  -0.01   0.04    -0.00   0.00  -0.02
  19   1     0.25  -0.01  -0.02    -0.04   0.01   0.01     0.03   0.01   0.00
  20   1     0.13   0.02  -0.16    -0.02  -0.00   0.02     0.01   0.01  -0.02
  21   1     0.04   0.03  -0.05    -0.02  -0.04   0.00     0.00   0.00  -0.01
  22   6     0.00   0.01  -0.03     0.01   0.03  -0.02    -0.00   0.00   0.00
  23   8     0.01   0.01  -0.02    -0.00   0.02  -0.00    -0.00   0.00  -0.00
  24   7    -0.01  -0.01   0.04    -0.03  -0.03   0.04    -0.00  -0.00  -0.00
  25   1     0.00   0.00  -0.03     0.00  -0.01  -0.03     0.00  -0.00  -0.00
  26   1    -0.00   0.01  -0.03    -0.02   0.01  -0.04    -0.00  -0.00   0.00
  27   7    -0.01  -0.02   0.05     0.01  -0.03   0.05     0.00  -0.00  -0.00
  28   1     0.02   0.05  -0.17     0.04   0.05  -0.18     0.00  -0.00   0.00
  29   1     0.00   0.00   0.00     0.00  -0.01   0.01    -0.00  -0.00  -0.00
  30   6    -0.01  -0.01  -0.00     0.00   0.01   0.01     0.02   0.04   0.03
  31   8    -0.00  -0.00  -0.00     0.01   0.01   0.01     0.03   0.04   0.03
  32   7     0.00   0.01  -0.00    -0.01  -0.01   0.01     0.03  -0.09   0.07
  33   1     0.03  -0.02   0.02    -0.02   0.01  -0.02    -0.36   0.26  -0.26
  34   1    -0.02   0.03  -0.02     0.00  -0.02   0.02     0.21  -0.34   0.26
  35   7     0.00  -0.00   0.01     0.00  -0.00  -0.01    -0.05   0.06  -0.09
  36   1     0.03  -0.03   0.03    -0.01   0.02  -0.03    -0.25   0.27  -0.29
  37   1    -0.02   0.03  -0.01     0.01  -0.03   0.01     0.26  -0.38   0.18
  38   6    -0.00  -0.03  -0.01     0.00  -0.02   0.03    -0.00  -0.00  -0.00
  39   8    -0.01  -0.03  -0.00     0.00  -0.02   0.03    -0.00  -0.00  -0.00
  40   7    -0.02   0.06   0.04    -0.02   0.04  -0.02    -0.00   0.00   0.00
  41   1    -0.01   0.00  -0.01    -0.00   0.02   0.00     0.00  -0.00  -0.00
  42   1     0.04  -0.15  -0.18     0.01  -0.07  -0.11     0.00  -0.00  -0.01
  43   7     0.02   0.02   0.04     0.02   0.00   0.02     0.00   0.00   0.00
  44   1     0.02  -0.00  -0.00    -0.01   0.04   0.08     0.00  -0.00  -0.00
  45   1     0.01  -0.01  -0.04     0.02  -0.04  -0.09    -0.00   0.00   0.00
  46   6    -0.01  -0.01  -0.01    -0.06   0.05  -0.06     0.00  -0.00   0.00
  47   8    -0.01  -0.01  -0.00    -0.03   0.03  -0.10    -0.00  -0.00   0.01
  48   7     0.00  -0.00   0.02    -0.01  -0.11   0.11     0.00   0.01  -0.00
  49   1     0.02   0.00   0.01    -0.03   0.13  -0.08     0.01  -0.01   0.01
  50   1    -0.01   0.03   0.00    -0.02   0.00   0.03    -0.00   0.01  -0.00
  51   7     0.03  -0.01   0.01     0.17  -0.14   0.18    -0.00   0.01  -0.01
  52   1    -0.01   0.04  -0.04    -0.32   0.62  -0.49     0.02  -0.03   0.02
  53   1     0.01   0.00   0.00     0.00  -0.05  -0.03     0.00   0.00   0.00
                     43                     44                     45
                        a                      a                      a 
 Frequencies --   455.0515               463.3444               466.5605
 Red. masses --     8.4631                 8.3583                 8.3394
 Frc consts  --     0.0000                 0.0000                 0.0000
 IR Inten    --     3.6847                 2.9475                 1.2759
 Raman Activ --     0.0000                 0.0000                 0.0000
 Depolar     --     0.0000                 0.0000                 0.0000
 Atom AN      X      Y      Z        X      Y      Z        X      Y      Z
   1   8    -0.01  -0.02   0.02    -0.01   0.01  -0.01     0.00  -0.00  -0.00
   2   6     0.02   0.10  -0.01     0.02   0.06  -0.01    -0.04  -0.13   0.03
   3   1     0.00   0.01  -0.01     0.01   0.03  -0.00    -0.02  -0.05   0.01
   4   1     0.01   0.04  -0.03     0.02   0.01   0.00    -0.03  -0.03   0.01
   5   6     0.08   0.11   0.05    -0.07   0.09   0.01     0.06  -0.17  -0.03
   6   1     0.03   0.03   0.00    -0.05   0.08   0.09     0.05  -0.12  -0.11
   7   1     0.02   0.02   0.02    -0.09   0.04  -0.08     0.10  -0.06   0.08
   8   7     0.08   0.06   0.06     0.17  -0.09   0.05    -0.24   0.09  -0.09
   9   6    -0.07  -0.03  -0.02     0.01  -0.04  -0.19     0.02   0.06   0.24
  10   1    -0.01  -0.03  -0.04     0.03  -0.05  -0.11    -0.03   0.07   0.16
  11   1    -0.06   0.00   0.02    -0.03   0.01  -0.06     0.07  -0.02   0.06
  12   1    -0.04  -0.02  -0.03    -0.04   0.02  -0.05     0.07  -0.01   0.07
  13   6    -0.07  -0.03  -0.09    -0.18   0.03   0.00     0.26  -0.00   0.03
  14   1    -0.05  -0.05  -0.01    -0.12  -0.04   0.06     0.17   0.07  -0.08
  15   1    -0.04  -0.02  -0.03    -0.06   0.06  -0.05     0.09  -0.06   0.08
  16   1    -0.02   0.01  -0.08    -0.08   0.03  -0.02     0.10  -0.05   0.06
  17   6     0.03  -0.11   0.04     0.12  -0.10   0.15    -0.17   0.17  -0.21
  18   1    -0.00  -0.03  -0.01     0.06  -0.02   0.06    -0.07   0.03  -0.07
  19   1    -0.02  -0.06  -0.02     0.01  -0.04   0.03    -0.01   0.07  -0.03
  20   1     0.03  -0.06   0.05     0.01  -0.02   0.07    -0.03   0.05  -0.10
  21   1    -0.01  -0.01   0.01    -0.01  -0.01  -0.00     0.03   0.04  -0.01
  22   6    -0.00  -0.00  -0.00     0.05   0.19   0.06     0.02   0.10   0.03
  23   8     0.00  -0.01  -0.00    -0.12   0.22   0.05    -0.07   0.11   0.03
  24   7     0.00   0.00   0.00    -0.19  -0.16  -0.05    -0.10  -0.08  -0.02
  25   1    -0.00   0.00  -0.00     0.05  -0.21  -0.14     0.03  -0.10  -0.10
  26   1     0.00  -0.00   0.00    -0.25  -0.05   0.01    -0.14  -0.03   0.04
  27   7    -0.00   0.00   0.00     0.25  -0.15  -0.01     0.13  -0.08  -0.02
  28   1    -0.00   0.00  -0.01     0.19  -0.04  -0.01     0.10  -0.03   0.01
  29   1     0.00   0.00   0.00     0.01  -0.14  -0.01     0.00  -0.08   0.00
  30   6    -0.13  -0.23  -0.14     0.01   0.02   0.01    -0.03  -0.04  -0.02
  31   8    -0.15  -0.25  -0.15     0.01   0.02   0.01    -0.03  -0.05  -0.03
  32   7     0.32   0.17  -0.14    -0.03  -0.01   0.01     0.06   0.03  -0.03
  33   1     0.03   0.27   0.10     0.00  -0.03  -0.01     0.01   0.05   0.02
  34   1     0.28   0.01  -0.17    -0.03   0.00   0.01     0.05   0.00  -0.03
  35   7    -0.13   0.15   0.33     0.01  -0.01  -0.03    -0.03   0.02   0.06
  36   1    -0.23   0.06   0.22     0.02  -0.00  -0.02    -0.04   0.01   0.04
  37   1     0.20   0.14   0.14    -0.02  -0.01  -0.01     0.03   0.03   0.02
  38   6    -0.00  -0.00   0.00    -0.06  -0.13   0.07    -0.03  -0.09   0.06
  39   8     0.00  -0.00   0.00     0.04  -0.15   0.10     0.03  -0.10   0.07
  40   7    -0.00   0.00  -0.00    -0.16   0.10  -0.11    -0.11   0.08  -0.10
  41   1     0.00  -0.00  -0.01     0.01   0.09  -0.06     0.01   0.08  -0.04
  42   1    -0.00   0.01   0.01    -0.14   0.07  -0.02    -0.11   0.06  -0.02
  43   7     0.00   0.00  -0.00     0.18   0.11  -0.03     0.13   0.07  -0.01
  44   1     0.00  -0.00  -0.00     0.20  -0.00  -0.01     0.13   0.02   0.03
  45   1    -0.00   0.00   0.00    -0.01   0.18  -0.04     0.01   0.10  -0.07
  46   6     0.00   0.01   0.00     0.00  -0.01  -0.00     0.07   0.06   0.07
  47   8     0.01   0.00  -0.00    -0.01  -0.00   0.02     0.13   0.04   0.01
  48   7    -0.00  -0.01  -0.00     0.01   0.02  -0.00    -0.01  -0.07  -0.12
  49   1    -0.01   0.01  -0.01     0.02  -0.02   0.02    -0.12  -0.02  -0.05
  50   1     0.01  -0.01  -0.00    -0.01   0.02   0.00     0.06  -0.07  -0.10
  51   7    -0.01  -0.00   0.01     0.00   0.01  -0.02    -0.14   0.00   0.08
  52   1    -0.02   0.02  -0.01     0.03  -0.06   0.04    -0.08   0.02   0.07
  53   1    -0.00  -0.01  -0.00     0.00   0.00   0.00    -0.07  -0.04  -0.03
                     46                     47                     48
                        a                      a                      a 
 Frequencies --   470.5888               474.5667               479.0929
 Red. masses --     8.0741                 2.2182                 6.4233
 Frc consts  --     0.0000                 0.0000                 0.0000
 IR Inten    --    28.0203                 3.7875                17.6300
 Raman Activ --     0.0000                 0.0000                 0.0000
 Depolar     --     0.0000                 0.0000                 0.0000
 Atom AN      X      Y      Z        X      Y      Z        X      Y      Z
   1   8     0.03   0.04  -0.02     0.00   0.01  -0.02     0.00  -0.06   0.07
   2   6    -0.05  -0.19   0.02    -0.00  -0.02  -0.00     0.02   0.12  -0.01
   3   1    -0.00  -0.03   0.01     0.01   0.01   0.00    -0.02  -0.03  -0.01
   4   1    -0.03  -0.07   0.04     0.00  -0.02   0.01    -0.00   0.08  -0.06
   5   6    -0.14  -0.18  -0.06    -0.07  -0.01  -0.02     0.24   0.10   0.09
   6   1    -0.07  -0.04   0.03    -0.04   0.02   0.03     0.12  -0.03  -0.10
   7   1    -0.06  -0.03  -0.05    -0.05   0.01  -0.04     0.15  -0.01   0.13
   8   7    -0.07  -0.12  -0.11     0.03  -0.06  -0.01    -0.02   0.23   0.05
   9   6     0.16   0.05  -0.01     0.04   0.00  -0.06    -0.17  -0.04   0.15
  10   1     0.03   0.04   0.04     0.02  -0.00  -0.02    -0.05  -0.01   0.05
  11   1     0.10   0.00  -0.05     0.02   0.00  -0.03    -0.08  -0.02   0.11
  12   1     0.07   0.05   0.04     0.00   0.02  -0.01    -0.04  -0.09  -0.01
  13   6     0.09   0.12   0.15    -0.03   0.03   0.04     0.05  -0.11  -0.20
  14   1     0.06   0.09   0.03    -0.02   0.01   0.03     0.02  -0.05  -0.08
  15   1     0.06   0.09   0.04    -0.00   0.03  -0.01    -0.02  -0.12  -0.02
  16   1     0.00  -0.00   0.13    -0.02   0.01   0.03     0.06  -0.02  -0.14
  17   6    -0.02   0.19  -0.01     0.03   0.02   0.04    -0.09  -0.14  -0.10
  18   1     0.03   0.05   0.04     0.03   0.01   0.03    -0.08  -0.05  -0.08
  19   1     0.02   0.10   0.04     0.01   0.01   0.02    -0.06  -0.07  -0.06
  20   1    -0.05   0.10  -0.05    -0.01   0.02   0.00     0.05  -0.10   0.02
  21   1     0.02   0.01  -0.02     0.01   0.01  -0.01    -0.01  -0.02   0.03
  22   6     0.01   0.05   0.01     0.01   0.01   0.00     0.02   0.03   0.03
  23   8    -0.02   0.06   0.01    -0.01   0.01   0.00    -0.06   0.04   0.04
  24   7    -0.05  -0.04  -0.01    -0.00  -0.01  -0.00    -0.03  -0.03   0.02
  25   1     0.01  -0.05  -0.03     0.01  -0.01  -0.05     0.05  -0.00  -0.37
  26   1    -0.06  -0.01  -0.01    -0.02  -0.02   0.04    -0.12  -0.08   0.23
  27   7     0.06  -0.04   0.00     0.02  -0.01  -0.01     0.07  -0.02  -0.05
  28   1     0.05  -0.01  -0.00     0.01  -0.01   0.01     0.04   0.00  -0.04
  29   1     0.00  -0.04  -0.01     0.00  -0.01   0.00     0.00  -0.03   0.04
  30   6    -0.03  -0.06  -0.04    -0.00  -0.01  -0.00     0.02   0.04   0.02
  31   8    -0.04  -0.07  -0.04    -0.01  -0.01  -0.01     0.03   0.05   0.02
  32   7     0.08   0.04  -0.05     0.01   0.01  -0.01    -0.05  -0.03   0.03
  33   1     0.02   0.06   0.03     0.00   0.01   0.01    -0.01  -0.04  -0.02
  34   1     0.07   0.00  -0.05     0.01   0.00  -0.01    -0.04  -0.00   0.03
  35   7    -0.04   0.03   0.09    -0.01   0.00   0.01     0.02  -0.02  -0.05
  36   1    -0.05   0.01   0.07    -0.01   0.00   0.01     0.03  -0.00  -0.04
[...]
  44   1     0.00   0.01  -0.01    -0.00  -0.00   0.00     0.01   0.03  -0.01
  45   1    -0.03  -0.01  -0.00     0.01   0.00   0.00    -0.03  -0.01   0.00
  46   6     0.00   0.01   0.01     0.01   0.01   0.01     0.00  -0.00   0.00
  47   8    -0.01  -0.00  -0.00    -0.01  -0.00  -0.01    -0.00  -0.00  -0.00
  48   7     0.00  -0.00  -0.00    -0.00  -0.00  -0.00     0.17  -0.01  -0.06
  49   1     0.00  -0.00  -0.00    -0.00   0.01   0.01    -0.09   0.36   0.56
  50   1     0.00   0.00   0.00    -0.01  -0.00  -0.00    -0.55  -0.31  -0.33
  51   7    -0.16   0.03   0.08     0.05  -0.01  -0.03    -0.01  -0.01  -0.00
  52   1    -0.08  -0.06  -0.03     0.02   0.02   0.01     0.04   0.03   0.02
  53   1     0.67  -0.07  -0.28    -0.20   0.02   0.08     0.01  -0.00  -0.01
                    142                    143                    144
                        a                      a                      a 
 Frequencies --  3499.7699              3500.5690              3501.2686
 Red. masses --     1.4483                 1.4481                 1.4380
 Frc consts  --     0.0000                 0.0000                 0.0000
 IR Inten    --    23.6078                21.3682                40.0950
 Raman Activ --     0.0000                 0.0000                 0.0000
 Depolar     --     0.0000                 0.0000                 0.0000
 Atom AN      X      Y      Z        X      Y      Z        X      Y      Z
   1   8     0.00  -0.00   0.00    -0.00   0.00  -0.00     0.00  -0.00   0.00
   2   6    -0.00  -0.00   0.00     0.00   0.00  -0.00     0.00  -0.00  -0.00
   3   1    -0.00   0.00  -0.00     0.00  -0.00  -0.00    -0.00  -0.00  -0.00
   4   1    -0.00  -0.00   0.00     0.00   0.00   0.00     0.00   0.00   0.00
   5   6    -0.00   0.00  -0.00    -0.00   0.00   0.00    -0.00  -0.00   0.00
   6   1    -0.00  -0.00   0.00     0.00   0.00   0.00     0.00  -0.00  -0.00
   7   1     0.00  -0.00  -0.00     0.00  -0.00  -0.00    -0.00   0.00   0.00
   8   7     0.00   0.00   0.00     0.00  -0.00  -0.00    -0.00  -0.00   0.00
   9   6    -0.00  -0.00   0.00     0.00   0.00   0.00    -0.00  -0.00  -0.00
  10   1    -0.00  -0.00   0.00     0.00  -0.00   0.00    -0.00   0.00  -0.00
  11   1     0.00   0.00  -0.00    -0.00  -0.00  -0.00     0.00   0.00  -0.00
  12   1    -0.00  -0.00  -0.00    -0.00   0.00  -0.00    -0.00  -0.00   0.00
  13   6    -0.00  -0.00  -0.00    -0.00   0.00   0.00     0.00  -0.00  -0.00
  14   1     0.00   0.00   0.00    -0.00   0.00   0.00     0.00  -0.00   0.00
  15   1     0.00  -0.00  -0.00     0.00  -0.00  -0.00    -0.00   0.00   0.00
  16   1    -0.00   0.00  -0.00    -0.00   0.00  -0.00     0.00  -0.00  -0.00
  17   6    -0.00  -0.00   0.00    -0.00   0.00   0.00    -0.00  -0.00  -0.00
  18   1     0.00  -0.00  -0.00    -0.00  -0.00  -0.00    -0.00   0.00   0.00
  19   1    -0.00   0.00  -0.00    -0.00  -0.00  -0.00    -0.00  -0.00   0.00
  20   1     0.00   0.00   0.00    -0.00   0.00   0.00     0.00   0.00  -0.00
  21   1    -0.00   0.00  -0.00     0.00  -0.00   0.00    -0.00   0.00  -0.00
  22   6     0.00  -0.00   0.00     0.00  -0.00  -0.00    -0.00   0.00   0.00
  23   8    -0.00   0.00  -0.00     0.00   0.00   0.00    -0.00  -0.00  -0.00
  24   7    -0.00   0.00   0.00     0.15  -0.10  -0.03    -0.00   0.00   0.00
  25   1     0.00   0.00   0.00    -0.59  -0.31  -0.10     0.02   0.01   0.00
  26   1    -0.00  -0.01  -0.00     0.02   0.68   0.21    -0.00  -0.02  -0.01
  27   7    -0.00  -0.00  -0.00    -0.01   0.01   0.00     0.00  -0.00  -0.00
  28   1     0.00   0.01   0.00    -0.00  -0.04  -0.01     0.00   0.00   0.00
  29   1     0.01  -0.01   0.00     0.01  -0.01   0.00    -0.00   0.00  -0.00
  30   6     0.00   0.00   0.00    -0.00  -0.00   0.00    -0.00  -0.00   0.00
  31   8    -0.00  -0.00  -0.00     0.00   0.00   0.00    -0.00  -0.00   0.00
  32   7    -0.00   0.00   0.00    -0.00   0.00   0.00    -0.02   0.04   0.13
  33   1     0.00   0.00  -0.00     0.01   0.01  -0.01     0.38   0.25  -0.23
  34   1    -0.00  -0.00  -0.00    -0.01  -0.01  -0.01    -0.29  -0.40  -0.28
  35   7    -0.00  -0.00   0.00    -0.00  -0.00   0.00    -0.08  -0.07   0.04
  36   1     0.00   0.00   0.00     0.00   0.01   0.01     0.18   0.38   0.21
  37   1     0.00  -0.00  -0.00     0.00  -0.00  -0.01     0.12  -0.11  -0.37
  38   6     0.00  -0.00   0.00     0.00  -0.00   0.00     0.00   0.00  -0.00
  39   8     0.00   0.00  -0.00    -0.00   0.00  -0.00    -0.00  -0.00   0.00
  40   7    -0.00   0.01  -0.01    -0.00  -0.00   0.00     0.00   0.00  -0.00
  41   1     0.01  -0.01   0.01     0.01  -0.00   0.00    -0.00   0.00  -0.00
  42   1    -0.01  -0.03   0.03     0.00   0.01  -0.00    -0.00  -0.00   0.00
  43   7     0.14  -0.10   0.07     0.00  -0.00   0.00    -0.00   0.00  -0.00
  44   1     0.14   0.61  -0.29     0.00   0.01  -0.00    -0.00  -0.00   0.00
  45   1    -0.65  -0.25   0.02    -0.01  -0.00   0.00     0.00   0.00  -0.00
  46   6    -0.00  -0.00  -0.00     0.00   0.00  -0.00    -0.00  -0.00  -0.00
  47   8     0.00   0.00   0.00    -0.00   0.00  -0.00     0.00   0.00   0.00
  48   7    -0.01   0.00   0.00    -0.00   0.00   0.00    -0.00   0.00   0.00
  49   1     0.00  -0.02  -0.03     0.00  -0.00  -0.00     0.00  -0.00  -0.00
  50   1     0.03   0.01   0.02     0.00   0.00   0.00     0.00   0.00   0.00
  51   7     0.01   0.00  -0.00     0.00   0.00   0.00     0.00   0.00   0.00
  52   1    -0.01  -0.01  -0.01    -0.00  -0.00  -0.00    -0.00  -0.00  -0.00
  53   1    -0.02   0.00   0.01     0.00  -0.00  -0.00     0.00  -0.00  -0.00
                    145                    146                    147
                        a                      a                      a 
 Frequencies --  3505.6883              3520.0405              3530.9300
 Red. masses --     1.4619                 1.9063                 1.8993
 Frc consts  --     0.0000                 0.0000                 0.0000
 IR Inten    --     8.6064                13.3714                15.4044
 Raman Activ --     0.0000                 0.0000                 0.0000
 Depolar     --     0.0000                 0.0000                 0.0000
 Atom AN      X      Y      Z        X      Y      Z        X      Y      Z
   1   8     0.00  -0.00   0.00     0.00  -0.00   0.00    -0.00   0.00  -0.00
   2   6    -0.00  -0.00   0.00    -0.00   0.00  -0.00     0.00   0.00   0.00
   3   1    -0.00  -0.00  -0.00     0.00  -0.00   0.00    -0.00   0.00  -0.00
   4   1    -0.00   0.00  -0.00     0.00   0.00   0.00    -0.00  -0.00  -0.00
   5   6    -0.00  -0.00   0.00     0.00  -0.00  -0.00    -0.00   0.00   0.00
   6   1    -0.00   0.00  -0.00    -0.00  -0.00  -0.00    -0.00   0.00  -0.00
   7   1     0.00  -0.00  -0.00    -0.00   0.00   0.00     0.00  -0.00  -0.00
   8   7    -0.00  -0.00  -0.00     0.00  -0.00   0.00     0.00   0.00   0.00
   9   6     0.00   0.00   0.00    -0.00   0.00  -0.00     0.00   0.00   0.00
  10   1     0.00  -0.00   0.00     0.00  -0.00   0.00    -0.00   0.00  -0.00
  11   1    -0.00  -0.00  -0.00     0.00  -0.00   0.00    -0.00  -0.00  -0.00
  12   1     0.00   0.00  -0.00     0.00   0.00  -0.00     0.00  -0.00   0.00
  13   6     0.00   0.00   0.00    -0.00  -0.00  -0.00     0.00   0.00   0.00
  14   1     0.00  -0.00   0.00     0.00  -0.00   0.00    -0.00   0.00  -0.00
  15   1     0.00   0.00   0.00     0.00  -0.00   0.00     0.00  -0.00  -0.00
  16   1    -0.00  -0.00  -0.00     0.00   0.00   0.00     0.00  -0.00   0.00
  17   6     0.00   0.00   0.00    -0.00   0.00   0.00     0.00   0.00   0.00
  18   1     0.00   0.00   0.00     0.00  -0.00  -0.00     0.00  -0.00  -0.00
  19   1     0.00   0.00   0.00    -0.00   0.00  -0.00     0.00  -0.00   0.00
  20   1    -0.00  -0.00  -0.00     0.00   0.00   0.00    -0.00  -0.00  -0.00
  21   1    -0.00   0.00  -0.00    -0.00   0.00  -0.00     0.00  -0.00   0.00
  22   6     0.00  -0.00  -0.00     0.00  -0.00   0.00     0.00   0.00   0.00
  23   8    -0.00   0.00   0.00    -0.00   0.00  -0.00    -0.00  -0.00   0.00
  24   7    -0.00   0.00   0.00     0.00   0.00   0.00    -0.00  -0.00  -0.00
  25   1     0.00   0.00   0.00    -0.00  -0.00  -0.00     0.00   0.00   0.00
  26   1    -0.00  -0.00  -0.00     0.00  -0.00  -0.00     0.00   0.01   0.00
  27   7    -0.00   0.00   0.00    -0.00  -0.00  -0.00    -0.00   0.01   0.00
  28   1    -0.00  -0.00  -0.00     0.00   0.01   0.00    -0.00  -0.03  -0.01
  29   1     0.00  -0.00  -0.00     0.00  -0.00   0.00     0.00  -0.00   0.00
  30   6    -0.00  -0.00  -0.00    -0.00   0.00   0.00    -0.00  -0.00  -0.00
  31   8     0.00   0.00   0.00     0.00  -0.00  -0.00     0.00   0.00   0.00
  32   7     0.03  -0.03  -0.11     0.00   0.00   0.00     0.00   0.00  -0.00
  33   1    -0.32  -0.21   0.19     0.00   0.00  -0.00    -0.00  -0.00   0.00
  34   1     0.23   0.32   0.22    -0.00  -0.00  -0.00     0.00   0.00   0.00
  35   7    -0.10  -0.08   0.06     0.00   0.00  -0.00     0.00   0.00   0.00
  36   1     0.22   0.45   0.25    -0.00  -0.00  -0.00    -0.00  -0.00  -0.00
  37   1     0.15  -0.14  -0.47    -0.00   0.00   0.00     0.00  -0.00  -0.00
  38   6     0.00   0.00  -0.00     0.00   0.00  -0.00    -0.00   0.01  -0.01
  39   8    -0.00  -0.00   0.00    -0.00  -0.00   0.00     0.00  -0.00   0.00
  40   7    -0.00  -0.00   0.00    -0.00  -0.00   0.00     0.05   0.20  -0.15
  41   1    -0.00   0.00  -0.00     0.00  -0.00   0.00     0.07  -0.03   0.02
  42   1     0.00   0.00  -0.00     0.00   0.01  -0.01    -0.23  -0.74   0.57
  43   7    -0.00   0.00  -0.00    -0.00   0.00  -0.00    -0.02  -0.01   0.00
  44   1    -0.00  -0.00   0.00    -0.00  -0.01   0.01     0.00   0.02  -0.01
  45   1     0.00   0.00  -0.00     0.01   0.00  -0.00     0.08   0.03  -0.00
  46   6    -0.00  -0.00  -0.00     0.01   0.00  -0.00     0.00   0.00   0.00
  47   8     0.00   0.00   0.00    -0.00  -0.00   0.00    -0.00  -0.00  -0.00
  48   7    -0.00   0.00   0.00     0.00  -0.01  -0.02     0.00  -0.00  -0.00
  49   1     0.00  -0.00  -0.00    -0.01   0.04   0.07    -0.00   0.00   0.00
  50   1     0.00   0.00   0.00     0.00  -0.00  -0.00     0.00   0.00   0.00
  51   7     0.00   0.00   0.00     0.20   0.16   0.07     0.00   0.00   0.00
  52   1    -0.00  -0.00  -0.00    -0.67  -0.61  -0.30    -0.01  -0.01  -0.00
  53   1    -0.00   0.00   0.00    -0.08   0.03   0.04    -0.00   0.00   0.00
                    148                    149                    150
                        a                      a                      a 
 Frequencies --  3537.0096              3562.9771              3565.7962
 Red. masses --     1.9037                 2.1825                 2.1911
 Frc consts  --     0.0000                 0.0000                 0.0000
 IR Inten    --    15.1325                12.2217                11.3880
 Raman Activ --     0.0000                 0.0000                 0.0000
 Depolar     --     0.0000                 0.0000                 0.0000
 Atom AN      X      Y      Z        X      Y      Z        X      Y      Z
   1   8    -0.00   0.00  -0.00     0.00  -0.00   0.00    -0.00   0.00  -0.00
   2   6    -0.00  -0.00   0.00    -0.00   0.00  -0.00    -0.00   0.00   0.00
   3   1    -0.00   0.00  -0.00     0.00  -0.00   0.00     0.00   0.00   0.00
   4   1    -0.00   0.00   0.00     0.00   0.00   0.00     0.00  -0.00  -0.00
   5   6    -0.00   0.00   0.00     0.00  -0.00   0.00     0.00  -0.00  -0.00
   6   1     0.00  -0.00   0.00    -0.00   0.00  -0.00    -0.00  -0.00  -0.00
   7   1     0.00  -0.00  -0.00     0.00  -0.00   0.00    -0.00   0.00   0.00
   8   7    -0.00   0.00   0.00    -0.00  -0.00   0.00     0.00   0.00  -0.00
   9   6     0.00   0.00  -0.00    -0.00  -0.00   0.00     0.00   0.00   0.00
  10   1     0.00  -0.00   0.00    -0.00  -0.00  -0.00     0.00   0.00   0.00
  11   1     0.00   0.00   0.00     0.00   0.00   0.00    -0.00  -0.00  -0.00
  12   1    -0.00  -0.00   0.00     0.00   0.00  -0.00     0.00   0.00   0.00
  13   6    -0.00  -0.00  -0.00    -0.00   0.00   0.00    -0.00  -0.00  -0.00
  14   1     0.00  -0.00   0.00     0.00  -0.00   0.00    -0.00  -0.00  -0.00
  15   1    -0.00   0.00   0.00     0.00  -0.00   0.00    -0.00  -0.00  -0.00
  16   1    -0.00   0.00   0.00    -0.00  -0.00  -0.00     0.00   0.00   0.00
  17   6     0.00  -0.00  -0.00    -0.00   0.00   0.00     0.00   0.00   0.00
  18   1    -0.00   0.00   0.00     0.00  -0.00   0.00     0.00   0.00   0.00
  19   1    -0.00   0.00   0.00    -0.00   0.00  -0.00    -0.00  -0.00   0.00
  20   1    -0.00  -0.00  -0.00     0.00  -0.00  -0.00     0.00  -0.00  -0.00
  21   1     0.00  -0.00   0.00    -0.00   0.00  -0.00     0.00  -0.00   0.00
  22   6    -0.01   0.01   0.00    -0.00   0.00   0.00    -0.00  -0.00  -0.00
  23   8     0.00  -0.00  -0.00     0.00  -0.00  -0.00     0.00   0.00  -0.00
  24   7    -0.02  -0.02  -0.01    -0.00  -0.00  -0.00    -0.00  -0.00  -0.00
  25   1     0.08   0.04   0.01     0.00   0.00   0.00     0.01   0.00   0.00
  26   1    -0.00   0.02   0.01    -0.00   0.00   0.00    -0.00   0.01   0.00
  27   7    -0.01   0.25   0.07    -0.00   0.00   0.00     0.00  -0.00  -0.00
  28   1    -0.03  -0.92  -0.27    -0.00  -0.00  -0.00     0.00   0.00   0.00
  29   1     0.08  -0.03   0.01     0.00  -0.00   0.00    -0.00   0.00  -0.00
  30   6     0.00   0.00   0.00     0.00   0.00  -0.00     0.01   0.00  -0.01
  31   8    -0.00  -0.00  -0.00     0.00   0.00   0.00    -0.00  -0.00   0.00
  32   7    -0.00   0.00   0.00     0.00   0.00   0.00     0.18   0.17  -0.00
  33   1     0.00   0.00  -0.00    -0.00  -0.00   0.00    -0.42  -0.27   0.28
  34   1    -0.00  -0.00  -0.00    -0.00  -0.00  -0.00    -0.25  -0.36  -0.27
  35   7     0.00   0.00   0.00    -0.00  -0.00  -0.00    -0.00  -0.11  -0.14
  36   1    -0.00  -0.00  -0.00     0.00   0.00   0.00     0.15   0.29   0.15
  37   1     0.00  -0.00  -0.00    -0.00   0.00   0.00    -0.14   0.10   0.39
  38   6     0.00   0.00  -0.00     0.00   0.00  -0.00    -0.00  -0.00   0.00
  39   8    -0.00  -0.00   0.00    -0.00  -0.00   0.00     0.00   0.00  -0.00
  40   7    -0.00  -0.01   0.00    -0.00   0.00  -0.00    -0.00  -0.00   0.00
  41   1    -0.00  -0.00   0.00     0.00  -0.00   0.00    -0.00   0.00  -0.00
  42   1     0.01   0.02  -0.02    -0.00  -0.00   0.00     0.00   0.00  -0.00
  43   7     0.00  -0.00   0.00     0.00   0.00  -0.00    -0.02  -0.02   0.01
  44   1     0.00   0.01  -0.00    -0.00  -0.01   0.00     0.01   0.05  -0.02
  45   1    -0.00  -0.00   0.00    -0.00  -0.00  -0.00     0.05   0.02  -0.00
  46   6     0.00   0.00   0.00     0.00   0.01   0.01    -0.00  -0.00   0.00
  47   8    -0.00  -0.00  -0.00    -0.00  -0.00  -0.00    -0.00  -0.00  -0.00
  48   7     0.00  -0.00  -0.00     0.11   0.17   0.23    -0.00  -0.00  -0.00
  49   1    -0.00   0.00   0.00     0.12  -0.37  -0.57    -0.00   0.00   0.00
  50   1     0.00  -0.00   0.00    -0.52  -0.27  -0.29     0.00   0.00   0.00
  51   7     0.00   0.00   0.00     0.01   0.01   0.00    -0.00   0.00   0.00
  52   1    -0.01  -0.01  -0.00    -0.04  -0.04  -0.02    -0.00  -0.00   0.00
  53   1    -0.01   0.00   0.00    -0.01   0.00   0.00     0.00  -0.00  -0.00
                    151                    152                    153
                        a                      a                      a 
 Frequencies --  3565.9806              3566.9821              3571.5857
 Red. masses --     2.1856                 2.1839                 2.1782
 Frc consts  --     0.0000                 0.0000                 0.0000
 IR Inten    --    17.5731                18.3402                11.7413
 Raman Activ --     0.0000                 0.0000                 0.0000
 Depolar     --     0.0000                 0.0000                 0.0000
 Atom AN      X      Y      Z        X      Y      Z        X      Y      Z
   1   8     0.00  -0.00   0.00     0.00   0.00   0.00    -0.00   0.00   0.00
   2   6    -0.00   0.00   0.00     0.00  -0.00  -0.00     0.00  -0.00  -0.00
   3   1    -0.00   0.00  -0.00    -0.00  -0.00   0.00    -0.00   0.00  -0.00
   4   1    -0.00  -0.00  -0.00     0.00   0.00  -0.00    -0.00  -0.00  -0.00
   5   6    -0.00   0.00   0.00     0.00  -0.00  -0.00     0.00   0.00  -0.00
   6   1    -0.00   0.00   0.00    -0.00  -0.00  -0.00     0.00  -0.00   0.00
   7   1     0.00  -0.00  -0.00    -0.00   0.00   0.00    -0.00   0.00   0.00
   8   7    -0.00  -0.00  -0.00    -0.00   0.00   0.00     0.00   0.00  -0.00
   9   6     0.00   0.00   0.00    -0.00  -0.00  -0.00    -0.00  -0.00  -0.00
  10   1    -0.00   0.00  -0.00    -0.00   0.00  -0.00    -0.00  -0.00  -0.00
  11   1    -0.00  -0.00  -0.00     0.00   0.00   0.00     0.00   0.00   0.00
  12   1    -0.00  -0.00   0.00     0.00  -0.00  -0.00    -0.00  -0.00  -0.00
  13   6     0.00  -0.00   0.00     0.00  -0.00  -0.00    -0.00  -0.00  -0.00
  14   1    -0.00  -0.00  -0.00    -0.00   0.00  -0.00    -0.00  -0.00  -0.00
  15   1    -0.00   0.00  -0.00    -0.00   0.00   0.00    -0.00  -0.00   0.00
  16   1     0.00  -0.00   0.00     0.00   0.00  -0.00     0.00   0.00   0.00
  17   6     0.00  -0.00  -0.00     0.00  -0.00  -0.00    -0.00  -0.00  -0.00
  18   1     0.00   0.00   0.00    -0.00   0.00   0.00    -0.00  -0.00   0.00
  19   1    -0.00  -0.00   0.00     0.00  -0.00  -0.00    -0.00  -0.00  -0.00
  20   1    -0.00  -0.00  -0.00     0.00   0.00   0.00     0.00   0.00   0.00
  21   1    -0.00   0.00  -0.00    -0.00   0.00  -0.00     0.00  -0.00   0.00
  22   6    -0.00  -0.00  -0.00    -0.01  -0.01  -0.00     0.00   0.00   0.00
  23   8     0.00  -0.00   0.00     0.00   0.00   0.00     0.00  -0.00  -0.00
  24   7    -0.01  -0.02  -0.01    -0.16  -0.24  -0.08     0.00   0.00   0.00
  25   1     0.05   0.03   0.01     0.61   0.30   0.09    -0.00  -0.00  -0.00
  26   1    -0.00   0.05   0.02    -0.00   0.62   0.20     0.00  -0.00  -0.00
  27   7    -0.00   0.00  -0.00     0.00  -0.02  -0.01    -0.00   0.00   0.00
  28   1    -0.00  -0.00  -0.00     0.00   0.08   0.02    -0.00  -0.00  -0.00
  29   1     0.01  -0.00   0.00    -0.01   0.00  -0.00     0.00  -0.00   0.00
  30   6     0.00   0.00  -0.00    -0.00  -0.00   0.00    -0.00  -0.01  -0.01
  31   8    -0.00  -0.00   0.00    -0.00  -0.00  -0.00     0.00   0.00   0.00
  32   7     0.01   0.01  -0.00    -0.00  -0.00   0.00    -0.13  -0.12  -0.00
  33   1    -0.03  -0.02   0.02     0.01   0.01  -0.01     0.30   0.19  -0.20
  34   1    -0.02  -0.03  -0.02     0.01   0.01   0.01     0.19   0.27   0.20
  35   7    -0.00  -0.01  -0.01    -0.00   0.00   0.00    -0.01  -0.15  -0.19
  36   1     0.01   0.02   0.01    -0.00  -0.00  -0.00     0.22   0.42   0.22
  37   1    -0.01   0.01   0.03     0.00  -0.00  -0.00    -0.18   0.14   0.52
  38   6     0.01   0.01  -0.00    -0.00  -0.00   0.00     0.00   0.00   0.00
  39   8    -0.00  -0.00   0.00     0.00   0.00  -0.00     0.00   0.00  -0.00
  40   7     0.00   0.01  -0.01     0.00  -0.00   0.00     0.00   0.00  -0.00
  41   1     0.01  -0.00   0.00    -0.01   0.00  -0.00     0.00  -0.00   0.00
  42   1    -0.02  -0.05   0.04     0.00   0.01  -0.01    -0.00  -0.00   0.00
  43   7     0.19   0.21  -0.08    -0.02  -0.02   0.01     0.00   0.00  -0.00
  44   1    -0.11  -0.60   0.29     0.01   0.05  -0.02    -0.00  -0.00   0.00
  45   1    -0.63  -0.21   0.01     0.05   0.02  -0.00    -0.00  -0.00   0.00
  46   6    -0.00  -0.00  -0.00    -0.00  -0.00   0.00     0.00   0.00   0.00
  47   8     0.00   0.00   0.00    -0.00  -0.00   0.00    -0.00  -0.00  -0.00
  48   7    -0.00  -0.00  -0.00    -0.00  -0.00  -0.00     0.00   0.00   0.00
  49   1    -0.00   0.00   0.00    -0.00   0.00   0.00     0.00  -0.00  -0.00
  50   1     0.01   0.00   0.00     0.00   0.00   0.00    -0.00  -0.00  -0.00
  51   7     0.00  -0.00  -0.00    -0.00   0.00   0.00     0.00   0.00   0.00
  52   1     0.01   0.01   0.00    -0.00  -0.00   0.00    -0.00  -0.00  -0.00
  53   1    -0.01   0.00   0.00     0.00  -0.00  -0.00    -0.00   0.00   0.00
