      -----------------------------------------------------------      
     |                   =====================                   |     
     |                           x T B                           |     
     |                   =====================                   |     
     |                         S. Grimme                         |     
     |          Mulliken Center for Theoretical Chemistry        |     
     |                    University of Bonn                     |     
      -----------------------------------------------------------      

   * xtb version 6.6.1 (unknown-commit) compiled by '@Linux' on 12/27/2023

   xtb is free software: you can redistribute it and/or modify it under
   the terms of the GNU Lesser General Public License as published by
   the Free Software Foundation, either version 3 of the License, or
   (at your option) any later version.
   
   xtb is distributed in the hope that it will be useful,
   but WITHOUT ANY WARRANTY; without even the implied warranty of
   MERCHANTABILITY or FITNESS FOR A PARTICULAR PURPOSE.  See the
   GNU Lesser General Public License for more details.
   
   Cite this work as:
   * C. Bannwarth, E. Caldeweyher, S. Ehlert, A. Hansen, P. Pracht,
     J. Seibert, S. Spicher, S. Grimme, WIREs Comput. Mol. Sci., 2020, 11,
     e01493. DOI: 10.1002/wcms.1493
   
   for GFN2-xTB:
   * C. Bannwarth, S. Ehlert and S. Grimme., J. Chem. Theory Comput., 2019,
     15, 1652-1671. DOI: 10.1021/acs.jctc.8b01176
   for GFN1-xTB:
   * S. Grimme, C. Bannwarth, P. Shushkov, J. Chem. Theory Comput., 2017,
     13, 1989-2009. DOI: 10.1021/acs.jctc.7b00118
   for GFN0-xTB:
   * P. Pracht, E. Caldeweyher, S. Ehlert, S. Grimme, ChemRxiv, 2019, preprint.
     DOI: 10.26434/chemrxiv.8326202.v1
   for GFN-FF:
   * S. Spicher and S. Grimme, Angew. Chem. Int. Ed., 2020, 59, 15665-15673.
     DOI: 10.1002/anie.202004239
   
   for ALPB and GBSA implicit solvation:
   * S. Ehlert, M. Stahn, S. Spicher, S. Grimme, J. Chem. Theory Comput.,
     2021, 17, 4250-4261. DOI: 10.1021/acs.jctc.1c00471
   
   for DFT-D4:
   * E. Caldeweyher, C. Bannwarth and S. Grimme, J. Chem. Phys., 2017,
     147, 034112. DOI: 10.1063/1.4993215
   * E. Caldeweyher, S. Ehlert, A. Hansen, H. Neugebauer, S. Spicher,
     C. Bannwarth and S. Grimme, J. Chem. Phys., 2019, 150, 154122.
     DOI: 10.1063/1.5090222
   * E. Caldeweyher, J.-M. Mewes, S. Ehlert and S. Grimme, Phys. Chem. Chem. Phys.
     2020, 22, 8499-8512. DOI: 10.1039/D0CP00502A
   
   for sTDA-xTB:
   * S. Grimme and C. Bannwarth, J. Chem. Phys., 2016, 145, 054103.
     DOI: 10.1063/1.4959605
   
   in the mass-spec context:
   * V. Asgeirsson, C. Bauer and S. Grimme, Chem. Sci., 2017, 8, 4879.
     DOI: 10.1039/c7sc00601b
   * J. Koopman and S. Grimme, ACS Omega 2019, 4, 12, 15120-15133.
     DOI: 10.1021/acsomega.9b02011
   
   for metadynamics refer to:
   * S. Grimme, J. Chem. Theory Comput., 2019, 155, 2847-2862
     DOI: 10.1021/acs.jctc.9b00143
   
   for SPH calculations refer to:
   * S. Spicher and S. Grimme, J. Chem. Theory Comput., 2021, 17, 1701-1714
     DOI: 10.1021/acs.jctc.0c01306
   
   with help from (in alphabetical order)
   P. Atkinson, C. Bannwarth, F. Bohle, G. Brandenburg, E. Caldeweyher
   M. Checinski, S. Dohm, S. Ehlert, S. Ehrlich, I. Gerasimov, C. Hölzer
   A. Katbashev, J. Koopman, C. Lavigne, S. Lehtola, F. März, M. Müller,
   F. Musil, H. Neugebauer, J. Pisarek, C. Plett, P. Pracht, F. Pultar,
   J. Seibert, P. Shushkov, S. Spicher, M. Stahn, M. Steiner, T. Strunk,
   J. Stückrath, T. Rose, and J. Unsleber
   
 * started run on 2024/01/10 at 15:34:58.264     

           -------------------------------------------------
          |                Calculation Setup                |
           -------------------------------------------------

          program call               : xtb struc.xyz --gfn2 --hess
          hostname                   : swaroop
          coordinate file            : struc.xyz
          omp threads                :                     1

   ID    Z sym.   atoms
    1    8 O      1, 23, 31, 39, 47
    2    6 C      2, 5, 9, 13, 17, 22, 30, 38, 46
    3    1 H      3, 4, 6, 7, 10-12, 14-16, 18-21, 25, 26, 28, 29, 33, 34,
                  36, 37, 41, 42, 44, 45, 49, 50, 52, 53
    4    7 N      8, 24, 27, 32, 35, 40, 43, 48, 51

molecular fragmentation (1/2 indicates fragments):
11111111111111111111122222222222222222222222222222222
# atoms in fragment 1/2:    21    32
 fragment masses (1/2) :      104.17      240.22
CMA distance (Bohr)    :   5.684
constraining FC (au)   :  0.0500

           -------------------------------------------------
          |                 G F N 2 - x T B                 |
           -------------------------------------------------

        Reference                      10.1021/acs.jctc.8b01176
      * Hamiltonian:
        H0-scaling (s, p, d)           1.850000    2.230000    2.230000
        zeta-weighting                 0.500000
      * Dispersion:
        s8                             2.700000
        a1                             0.520000
        a2                             5.000000
        s9                             5.000000
      * Repulsion:
        kExp                           1.500000    1.000000
        rExp                           1.000000
      * Coulomb:
        alpha                          2.000000
        third order                    shell-resolved
        anisotropic                    true
        a3                             3.000000
        a5                             4.000000
        cn-shift                       1.200000
        cn-exp                         4.000000
        max-rad                        5.000000


          ...................................................
          :                      SETUP                      :
          :.................................................:
          :  # basis functions                 122          :
          :  # atomic orbitals                 122          :
          :  # shells                           76          :
          :  # electrons                       140          :
          :  max. iterations                   250          :
          :  Hamiltonian                  GFN2-xTB          :
          :  restarted?                      false          :
          :  GBSA solvation                  false          :
          :  PC potential                    false          :
          :  electronic temp.          300.0000000     K    :
          :  accuracy                    1.0000000          :
          :  -> integral cutoff          0.2500000E+02      :
          :  -> integral neglect         0.1000000E-07      :
          :  -> SCF convergence          0.1000000E-05 Eh   :
          :  -> wf. convergence          0.1000000E-03 e    :
          :  Broyden damping             0.4000000          :
          ...................................................

 iter      E             dE          RMSdq      gap      omega  full diag
   1    -81.5496677 -0.815497E+02  0.424E+00    5.09       0.0  T
   2    -81.8358739 -0.286206E+00  0.228E+00    5.92       1.0  T
   3    -81.8416954 -0.582149E-02  0.112E+00    5.66       1.0  T
   4    -81.8430521 -0.135669E-02  0.238E-01    5.71       1.0  T
   5    -81.8438985 -0.846447E-03  0.900E-02    5.65       1.0  T
   6    -81.8439227 -0.241619E-04  0.283E-02    5.67       1.0  T
   7    -81.8439271 -0.441482E-05  0.737E-03    5.67       1.9  T
   8    -81.8439274 -0.263745E-06  0.276E-03    5.66       5.0  T
   9    -81.8439274 -0.243227E-07  0.104E-03    5.66      13.2  T
  10    -81.8439274 -0.711472E-08  0.197E-04    5.66      69.6  T
  11    -81.8439274 -0.499512E-09  0.908E-05    5.66     151.2  T

   *** convergence criteria satisfied after 11 iterations ***

         #    Occupation            Energy/Eh            Energy/eV
      -------------------------------------------------------------
         1        2.0000           -0.8046509             -21.8957
       ...           ...                  ...                  ...
        64        2.0000           -0.5027548             -13.6807
        65        2.0000           -0.5012235             -13.6390
        66        2.0000           -0.4987104             -13.5706
        67        2.0000           -0.4977959             -13.5457
        68        2.0000           -0.4972595             -13.5311
        69        2.0000           -0.4914605             -13.3733
        70        2.0000           -0.4879899             -13.2789 (HOMO)
        71                         -0.2798234              -7.6144 (LUMO)
        72                         -0.2750263              -7.4838
        73                         -0.2727458              -7.4218
        74                         -0.2608549              -7.0982
        75                         -0.1611800              -4.3859
       ...                                ...                  ...
       122                          0.5536935              15.0668
      -------------------------------------------------------------
                  HL-Gap            0.2081666 Eh            5.6645 eV
             Fermi-level           -0.3839067 Eh          -10.4466 eV

 SCC (total)                   0 d,  0 h,  0 min,  0.099 sec
 SCC setup                      ...        0 min,  0.000 sec (  0.293%)
 Dispersion                     ...        0 min,  0.001 sec (  0.592%)
 classical contributions        ...        0 min,  0.000 sec (  0.192%)
 integral evaluation            ...        0 min,  0.008 sec (  8.207%)
 iterations                     ...        0 min,  0.061 sec ( 61.943%)
 molecular gradient             ...        0 min,  0.028 sec ( 28.464%)
 printout                       ...        0 min,  0.000 sec (  0.297%)

         :::::::::::::::::::::::::::::::::::::::::::::::::::::
         ::                     SUMMARY                     ::
         :::::::::::::::::::::::::::::::::::::::::::::::::::::
         :: total energy             -80.935826292963 Eh    ::
         :: gradient norm              0.000185147975 Eh/a0 ::
         :: HOMO-LUMO gap              5.664500322453 eV    ::
         ::.................................................::
         :: SCC energy               -81.843927419542 Eh    ::
         :: -> isotropic ES            0.293959897952 Eh    ::
         :: -> anisotropic ES         -0.028776999187 Eh    ::
         :: -> anisotropic XC          0.020294129021 Eh    ::
         :: -> dispersion             -0.046452706110 Eh    ::
         :: repulsion energy           0.906451412789 Eh    ::
         :: add. restraining           0.000000000000 Eh    ::
         :: total charge               1.000000000000 e     ::
         :::::::::::::::::::::::::::::::::::::::::::::::::::::

           ------------------------------------------------- 
          |                Numerical Hessian                |
           ------------------------------------------------- 
step length          :   0.00500
SCC accuracy         :   0.30000
Hessian scale factor :   1.00000
frozen atoms in %    :   0.00000    0
RMS gradient         :   0.00019
estimated CPU  time      0.24 min
estimated wall time      0.24 min

writing file <hessian>.

 projected vibrational frequencies (cm⁻¹)
eigval :       -0.00    -0.00    -0.00    -0.00     0.00     0.00
eigval :       12.43    23.84    30.09    37.54    40.94    45.92
eigval :       51.51    54.95    60.46    67.17    71.53    75.48
eigval :       77.44    84.93    94.68   101.82   104.97   130.60
eigval :      137.74   148.98   157.67   171.32   180.30   194.89
eigval :      197.29   221.52   255.64   261.84   267.02   288.22
eigval :      301.47   304.47   345.06   357.55   370.93   374.95
eigval :      396.79   406.64   433.87   443.31   459.57   464.42
eigval :      465.62   466.89   473.58   475.94   484.10   491.79
eigval :      510.49   518.99   541.41   549.22   555.33   562.59
eigval :      578.49   595.03   659.11   668.27   670.88   676.66
eigval :      690.90   714.19   724.04   761.98   764.92   843.79
eigval :      898.53   924.36   959.31   964.79   968.05   989.07
eigval :      997.52  1005.58  1007.84  1019.57  1024.05  1026.78
eigval :     1029.73  1039.55  1041.95  1086.00  1089.70  1090.13
eigval :     1093.29  1099.84  1107.10  1129.66  1156.27  1221.18
eigval :     1250.02  1278.93  1307.08  1327.62  1342.94  1351.00
eigval :     1351.58  1362.17  1362.49  1389.77  1402.29  1405.27
eigval :     1429.81  1435.41  1438.36  1439.56  1443.94  1449.60
eigval :     1451.78  1454.26  1459.02  1465.66  1469.66  1477.16
eigval :     1486.17  1488.89  1502.62  1514.62  1534.90  1635.77
eigval :     1683.23  1712.23  1716.25  2900.65  2982.26  2994.99
eigval :     2996.70  3013.23  3034.06  3041.44  3043.09  3047.50
eigval :     3056.76  3061.66  3066.70  3070.20  3141.90  3171.70
eigval :     3228.52  3260.22  3282.52  3299.51  3492.96  3495.99
eigval :     3497.21  3500.55  3527.93  3530.89  3537.93  3540.03
eigval :     3561.77  3561.88  3565.47
           -------------------------------------------------
          |                Property Printout                |
           -------------------------------------------------

    * Orbital Energies and Occupations

         #    Occupation            Energy/Eh            Energy/eV
      -------------------------------------------------------------
         1        2.0000           -0.8046509             -21.8957
       ...           ...                  ...                  ...
        58        2.0000           -0.5154094             -14.0250
        59        2.0000           -0.5122500             -13.9390
        60        2.0000           -0.5100190             -13.8783
        61        2.0000           -0.5099948             -13.8777
        62        2.0000           -0.5096887             -13.8693
        63        2.0000           -0.5060232             -13.7696
        64        2.0000           -0.5027550             -13.6807
        65        2.0000           -0.5012237             -13.6390
        66        2.0000           -0.4987105             -13.5706
        67        2.0000           -0.4977966             -13.5457
        68        2.0000           -0.4972598             -13.5311
        69        2.0000           -0.4914611             -13.3733
        70        2.0000           -0.4879908             -13.2789 (HOMO)
        71                         -0.2798231              -7.6144 (LUMO)
        72                         -0.2750262              -7.4838
        73                         -0.2727461              -7.4218
        74                         -0.2608555              -7.0982
        75                         -0.1611801              -4.3859
        76                         -0.1115455              -3.0353
        77                         -0.0951289              -2.5886
        78                         -0.0888683              -2.4182
        79                         -0.0835762              -2.2742
        80                         -0.0790902              -2.1522
        81                         -0.0745539              -2.0287
       ...                                ...                  ...
       122                          0.5536931              15.0668
      -------------------------------------------------------------
                  HL-Gap            0.2081677 Eh            5.6645 eV
             Fermi-level           -0.3839069 Eh          -10.4466 eV

     #   Z          covCN         q      C6AA      α(0)
     1   8 O        1.655    -0.450    21.852     6.310
     2   6 C        3.673     0.071    19.612     6.347
     3   1 H        0.924     0.063     2.166     2.301
     4   1 H        0.923     0.048     2.345     2.395
     5   6 C        3.761    -0.058    21.666     6.635
     6   1 H        0.924     0.109     1.707     2.043
     7   1 H        0.924     0.076     2.026     2.226
     8   7 N        3.623     0.157    18.599     6.405
     9   6 C        3.727    -0.108    22.666     6.797
    10   1 H        0.925     0.081     1.968     2.194
    11   1 H        0.925     0.094     1.842     2.122
    12   1 H        0.925     0.130     1.538     1.940
    13   6 C        3.728    -0.125    23.013     6.849
    14   1 H        0.925     0.105     1.738     2.062
    15   1 H        0.925     0.115     1.653     2.011
    16   1 H        0.925     0.118     1.627     1.995
    17   6 C        3.737    -0.112    22.736     6.804
    18   1 H        0.925     0.090     1.877     2.142
    19   1 H        0.925     0.078     1.998     2.211
    20   1 H        0.924     0.134     1.503     1.918
    21   1 H        0.804     0.312     0.687     1.302
    22   6 C        2.675     0.343    21.168     7.529
    23   8 O        0.860    -0.534    24.548     6.643
    24   7 N        2.645    -0.295    27.599     7.802
    25   1 H        0.860     0.197     1.124     1.661
    26   1 H        0.861     0.181     1.208     1.722
    27   7 N        2.644    -0.311    28.007     7.860
    28   1 H        0.860     0.175     1.245     1.748
    29   1 H        0.860     0.236     0.942     1.520
    30   6 C        2.675     0.337    21.271     7.547
    31   8 O        0.861    -0.553    24.987     6.702
    32   7 N        2.643    -0.309    27.960     7.853
    33   1 H        0.859     0.247     0.897     1.484
    34   1 H        0.861     0.179     1.219     1.729
    35   7 N        2.643    -0.304    27.837     7.836
    36   1 H        0.861     0.180     1.213     1.725
    37   1 H        0.860     0.243     0.912     1.496
    38   6 C        2.675     0.341    21.200     7.534
    39   8 O        0.861    -0.518    24.196     6.595
    40   7 N        2.644    -0.304    27.830     7.835
    41   1 H        0.860     0.241     0.920     1.503
    42   1 H        0.861     0.180     1.215     1.727
    43   7 N        2.645    -0.290    27.473     7.785
    44   1 H        0.861     0.186     1.181     1.703
    45   1 H        0.860     0.201     1.101     1.644
    46   6 C        2.675     0.342    21.183     7.531
    47   8 O        0.860    -0.504    23.870     6.550
    48   7 N        2.641    -0.341    28.768     7.966
    49   1 H        0.859     0.241     0.919     1.502
    50   1 H        0.860     0.176     1.236     1.741
    51   7 N        2.643    -0.284    27.342     7.766
    52   1 H        0.861     0.189     1.164     1.690
    53   1 H        0.860     0.206     1.074     1.624

 Mol. C6AA /au·bohr⁶  :      21793.754000
 Mol. C8AA /au·bohr⁸  :     454428.100580
 Mol. α(0) /au        :        220.560261


Wiberg/Mayer (AO) data.
largest (>0.10) Wiberg bond orders for each atom

 ---------------------------------------------------------------------------
     #   Z sym  total        # sym  WBO       # sym  WBO       # sym  WBO
 ---------------------------------------------------------------------------
     1   8 O    1.965 --     2 C    1.022    21 H    0.848
     2   6 C    3.963 --     1 O    1.022     5 C    0.991     3 H    0.965
                             4 H    0.962
     3   1 H    0.996 --     2 C    0.965
     4   1 H    0.997 --     2 C    0.962
     5   6 C    3.940 --     2 C    0.991     7 H    0.969     6 H    0.956
                             8 N    0.940
     6   1 H    0.988 --     5 C    0.956
     7   1 H    0.994 --     5 C    0.969
     8   7 N    3.821 --     9 C    0.960    17 C    0.956    13 C    0.948
                             5 C    0.940
     9   6 C    3.927 --    10 H    0.979    11 H    0.974    12 H    0.962
                             8 N    0.960
    10   1 H    0.993 --     9 C    0.979
    11   1 H    0.991 --     9 C    0.974
    12   1 H    0.983 --     9 C    0.962
    13   6 C    3.905 --    14 H    0.970    16 H    0.962    15 H    0.956
                             8 N    0.948
    14   1 H    0.989 --    13 C    0.970
    15   1 H    0.987 --    13 C    0.956
    16   1 H    0.986 --    13 C    0.962
    17   6 C    3.922 --    19 H    0.979    18 H    0.973     8 N    0.956
                            20 H    0.950
    18   1 H    0.992 --    17 C    0.973
    19   1 H    0.994 --    17 C    0.979
    20   1 H    0.982 --    17 C    0.950
    21   1 H    0.903 --     1 O    0.848
    22   6 C    3.959 --    23 O    1.519    27 N    1.235    24 N    1.197
    23   8 O    1.884 --    22 C    1.519    27 N    0.146    24 N    0.136
    24   7 N    3.311 --    22 C    1.197    26 H    0.948    25 H    0.944
                            23 O    0.136
    25   1 H    0.961 --    24 N    0.944
    26   1 H    0.967 --    24 N    0.948
    27   7 N    3.326 --    22 C    1.235    28 H    0.950    29 H    0.884
                            23 O    0.146
    28   1 H    0.969 --    27 N    0.950
    29   1 H    0.945 --    27 N    0.884
    30   6 C    3.961 --    31 O    1.423    32 N    1.261    35 N    1.260
    31   8 O    1.898 --    30 C    1.423    32 N    0.130    35 N    0.128
    32   7 N    3.348 --    30 C    1.261    34 H    0.948    33 H    0.868
                            31 O    0.130
    33   1 H    0.939 --    32 N    0.868
    34   1 H    0.967 --    32 N    0.948
    35   7 N    3.346 --    30 C    1.260    36 H    0.948    37 H    0.874
                            31 O    0.128
    36   1 H    0.967 --    35 N    0.948
    37   1 H    0.941 --    35 N    0.874
    38   6 C    3.960 --    39 O    1.484    40 N    1.257    43 N    1.210
    39   8 O    1.932 --    38 C    1.484    40 N    0.142    43 N    0.130
    40   7 N    3.344 --    38 C    1.257    42 H    0.948    41 H    0.873
                            39 O    0.142
    41   1 H    0.942 --    40 N    0.873
    42   1 H    0.967 --    40 N    0.948
    43   7 N    3.323 --    38 C    1.210    44 H    0.947    45 H    0.942
                            39 O    0.130
    44   1 H    0.965 --    43 N    0.947
    45   1 H    0.959 --    43 N    0.942
    46   6 C    3.959 --    47 O    1.544    51 N    1.228    48 N    1.172
    47   8 O    1.936 --    46 C    1.544    51 N    0.149    48 N    0.131
    48   7 N    3.285 --    46 C    1.172    50 H    0.948    49 H    0.868
                            47 O    0.131
    49   1 H    0.942 --    48 N    0.868
    50   1 H    0.969 --    48 N    0.948
    51   7 N    3.345 --    46 C    1.228    52 H    0.945    53 H    0.940
                            47 O    0.149
    52   1 H    0.964 --    51 N    0.945
    53   1 H    0.957 --    51 N    0.940
 ---------------------------------------------------------------------------

Topologies differ in total number of bonds
Writing topology from bond orders to xtbtopo.mol

molecular dipole:
                 x           y           z       tot (Debye)
 q only:        0.476      -0.688      -0.100
   full:        0.169      -0.508       0.411       1.714
molecular quadrupole (traceless):
                xx          xy          yy          xz          yz          zz
 q only:       11.012     -15.086     -13.309      13.380     -22.249       2.297
  q+dip:       12.958     -20.250     -14.571      18.084     -29.423       1.614
   full:       13.257     -19.611     -14.695      17.395     -28.838       1.437

           -------------------------------------------------
          |               Frequency Printout                |
           -------------------------------------------------
 projected vibrational frequencies (cm⁻¹)
eigval :       -0.00    -0.00    -0.00    -0.00     0.00     0.00
eigval :       12.43    23.84    30.09    37.54    40.94    45.92
eigval :       51.51    54.95    60.46    67.17    71.53    75.48
eigval :       77.44    84.93    94.68   101.82   104.97   130.60
eigval :      137.74   148.98   157.67   171.32   180.30   194.89
eigval :      197.29   221.52   255.64   261.84   267.02   288.22
eigval :      301.47   304.47   345.06   357.55   370.93   374.95
eigval :      396.79   406.64   433.87   443.31   459.57   464.42
eigval :      465.62   466.89   473.58   475.94   484.10   491.79
eigval :      510.49   518.99   541.41   549.22   555.33   562.59
eigval :      578.49   595.03   659.11   668.27   670.88   676.66
eigval :      690.90   714.19   724.04   761.98   764.92   843.79
eigval :      898.53   924.36   959.31   964.79   968.05   989.07
eigval :      997.52  1005.58  1007.84  1019.57  1024.05  1026.78
eigval :     1029.73  1039.55  1041.95  1086.00  1089.70  1090.13
eigval :     1093.29  1099.84  1107.10  1129.66  1156.27  1221.18
eigval :     1250.02  1278.93  1307.08  1327.62  1342.94  1351.00
eigval :     1351.58  1362.17  1362.49  1389.77  1402.29  1405.27
eigval :     1429.81  1435.41  1438.36  1439.56  1443.94  1449.60
eigval :     1451.78  1454.26  1459.02  1465.66  1469.66  1477.16
eigval :     1486.17  1488.89  1502.62  1514.62  1534.90  1635.77
eigval :     1683.23  1712.23  1716.25  2900.65  2982.26  2994.99
eigval :     2996.70  3013.23  3034.06  3041.44  3043.09  3047.50
eigval :     3056.76  3061.66  3066.70  3070.20  3141.90  3171.70
eigval :     3228.52  3260.22  3282.52  3299.51  3492.96  3495.99
eigval :     3497.21  3500.55  3527.93  3530.89  3537.93  3540.03
eigval :     3561.77  3561.88  3565.47
 reduced masses (amu)
   1: 12.83   2: 12.56   3: 12.70   4: 12.16   5: 12.46   6: 12.70   7: 12.25   8: 12.06
   9: 12.76  10: 12.59  11: 12.07  12: 12.11  13: 12.55  14: 12.46  15: 12.12  16: 13.06
  17: 13.21  18: 10.69  19: 12.19  20: 13.17  21: 11.94  22: 12.97  23: 12.18  24: 12.91
  25: 13.01  26: 12.69  27: 12.48  28: 12.52  29: 13.11  30: 12.66  31: 11.34  32: 12.26
  33:  4.67  34:  3.13  35:  2.89  36:  4.51  37:  2.72  38:  8.13  39:  4.34  40:  3.34
  41:  6.02  42:  3.02  43:  2.08  44:  3.22  45:  8.35  46:  3.70  47:  7.73  48:  6.94
  49:  7.12  50:  3.84  51:  5.64  52:  6.64  53:  8.14  54:  2.12  55:  8.42  56:  3.01
  57: 11.33  58: 11.70  59:  7.01  60: 11.71  61: 12.33  62:  3.63  63:  7.26  64:  9.64
  65: 10.21  66: 11.96  67:  6.83  68:  3.00  69:  2.26  70:  1.89  71:  9.27  72:  3.55
  73:  7.35  74:  7.96  75:  6.07  76:  4.89  77:  4.88  78:  4.27  79:  7.24  80:  7.92
  81:  9.22  82:  9.27  83:  5.10  84:  9.73  85:  7.64  86:  3.43  87: 10.07  88:  8.73
  89:  8.41  90:  8.57  91:  7.21  92:  3.70  93:  6.16  94:  7.99  95:  2.84  96:  5.51
  97:  7.30  98:  8.10  99:  6.33 100:  3.24 101:  5.66 102:  3.65 103:  4.17 104:  5.87
 105:  5.13 106:  4.05 107:  2.50 108:  2.54 109:  2.16 110:  1.73 111:  2.54 112:  3.16
 113:  2.84 114:  2.03 115:  2.27 116:  3.00 117:  2.92 118:  1.77 119:  1.84 120:  1.89
 121:  1.68 122:  7.01 123:  8.11 124:  9.27 125: 10.30 126: 11.97 127: 12.61 128: 12.75
 129: 12.74 130:  1.76 131:  1.72 132:  1.92 133:  1.53 134:  1.73 135:  1.74 136:  1.58
 137:  1.74 138:  1.85 139:  1.75 140:  1.72 141:  1.73 142:  1.75 143:  1.81 144:  1.79
 145:  1.78 146:  1.78 147:  1.76 148:  1.89 149:  1.79 150:  1.53 151:  1.45 152:  1.45
 153:  1.92 154:  1.91 155:  1.90 156:  1.92 157:  2.18 158:  2.19 159:  2.18
 IR intensities (km·mol⁻¹)
   1:  1.03   2:  2.19   3:  0.83   4:  0.71   5:  1.48   6:  2.35   7:  1.64   8:  1.12
   9:  1.35  10:  0.72  11:  2.06  12:  1.34  13:  4.37  14:  1.45  15:  1.32  16:  3.75
  17:  7.87  18:  0.52  19:  4.44  20:  9.60  21:  0.95  22:  1.74  23:  3.85  24: 23.57
  25:  7.17  26: 31.03  27:  0.79  28:  6.76  29:  3.75  30: 28.17  31:  2.34  32:113.42
  33: 14.49  34:150.97  35:155.05  36:  4.73  37:142.75  38:  2.74  39:  0.95  40:  1.14
  41: 11.96  42: 45.70  43:175.24  44:264.34  45:  5.26  46:366.52  47:  4.68  48: 24.18
  49: 21.98  50: 12.67  51: 31.45  52: 11.42  53: 23.74  54: 54.07  55: 49.00  56: 27.76
  57: 21.72  58: 11.25  59: 25.59  60: 25.12  61: 55.65  62:162.70  63: 15.55  64: 12.48
  65: 42.34  66: 37.60  67: 46.46  68: 35.93  69:131.14  70:299.43  71:  2.62  72:576.34
  73:  3.89  74:  6.30  75:  2.35  76:  3.54  77:  3.34  78:  3.99  79: 28.03  80: 22.04
  81: 15.09  82:  1.41  83: 23.60  84:  7.13  85:  5.54  86:  5.76  87:  4.24  88:  0.52
  89:  1.75  90:  1.12  91: 11.22  92: 15.97  93: 13.39  94: 42.50  95: 15.57  96:  2.75
  97:  3.55  98: 18.03  99:  1.77 100: 25.12 101:277.11 102: 64.92 103: 29.94 104:111.04
 105: 35.07 106:  6.33 107: 22.60 108: 22.97 109:  1.63 110:  0.94 111:  6.91 112: 17.69
 113:  1.01 114:  4.39 115: 14.10 116: 19.76 117:  9.93 118: 12.24 119: 29.50 120: 35.92
 121: 10.15 122:510.54 123:555.38 124:334.07 125:535.59 126:337.06 127:618.87 128:712.88
 129:****** 130: 25.74 131: 18.20 132: 11.95 133:  8.42 134: 42.14 135:  6.47 136: 26.42
 137: 10.56 138: 35.39 139: 21.68 140:  3.29 141:  3.02 142:  2.12 143:708.47 144:529.08
 145:****** 146:737.49 147:611.47 148:481.44 149:  5.02 150: 33.54 151: 18.00 152: 19.20
 153: 12.91 154:  4.47 155: 32.05 156: 17.26 157:  9.58 158: 19.10 159: 16.69
 Raman intensities (amu)
Molecule has no symmetry elements
It seems to be the C1 point group
   1:  0.00   2:  0.00   3:  0.00   4:  0.00   5:  0.00   6:  0.00   7:  0.00   8:  0.00
   9:  0.00  10:  0.00  11:  0.00  12:  0.00  13:  0.00  14:  0.00  15:  0.00  16:  0.00
  17:  0.00  18:  0.00  19:  0.00  20:  0.00  21:  0.00  22:  0.00  23:  0.00  24:  0.00
  25:  0.00  26:  0.00  27:  0.00  28:  0.00  29:  0.00  30:  0.00  31:  0.00  32:  0.00
  33:  0.00  34:  0.00  35:  0.00  36:  0.00  37:  0.00  38:  0.00  39:  0.00  40:  0.00
  41:  0.00  42:  0.00  43:  0.00  44:  0.00  45:  0.00  46:  0.00  47:  0.00  48:  0.00
  49:  0.00  50:  0.00  51:  0.00  52:  0.00  53:  0.00  54:  0.00  55:  0.00  56:  0.00
  57:  0.00  58:  0.00  59:  0.00  60:  0.00  61:  0.00  62:  0.00  63:  0.00  64:  0.00
  65:  0.00  66:  0.00  67:  0.00  68:  0.00  69:  0.00  70:  0.00  71:  0.00  72:  0.00
  73:  0.00  74:  0.00  75:  0.00  76:  0.00  77:  0.00  78:  0.00  79:  0.00  80:  0.00
  81:  0.00  82:  0.00  83:  0.00  84:  0.00  85:  0.00  86:  0.00  87:  0.00  88:  0.00
  89:  0.00  90:  0.00  91:  0.00  92:  0.00  93:  0.00  94:  0.00  95:  0.00  96:  0.00
  97:  0.00  98:  0.00  99:  0.00 100:  0.00 101:  0.00 102:  0.00 103:  0.00 104:  0.00
 105:  0.00 106:  0.00 107:  0.00 108:  0.00 109:  0.00 110:  0.00 111:  0.00 112:  0.00
 113:  0.00 114:  0.00 115:  0.00 116:  0.00 117:  0.00 118:  0.00 119:  0.00 120:  0.00
 121:  0.00 122:  0.00 123:  0.00 124:  0.00 125:  0.00 126:  0.00 127:  0.00 128:  0.00
 129:  0.00 130:  0.00 131:  0.00 132:  0.00 133:  0.00 134:  0.00 135:  0.00 136:  0.00
 137:  0.00 138:  0.00 139:  0.00 140:  0.00 141:  0.00 142:  0.00 143:  0.00 144:  0.00
 145:  0.00 146:  0.00 147:  0.00 148:  0.00 149:  0.00 150:  0.00 151:  0.00 152:  0.00
 153:  0.00 154:  0.00 155:  0.00 156:  0.00 157:  0.00 158:  0.00 159:  0.00
 output can be read by thermo (or use thermo option).
 writing <g98.out> molden fake output.
 recommended (thermochemical) frequency scaling factor: 1.0
           -------------------------------------------------
          |             Thermodynamic Functions             |
           -------------------------------------------------

c1  symmetry found (for desy threshold:  0.10E+00) used in thermo

          ...................................................
          :                      SETUP                      :
          :.................................................:
          :  # frequencies                         153      :
          :  # imaginary freq.                       0      :
          :  linear?                             false      :
          :  only rotor calc.                    false      :
          :  symmetry                               c1      :
          :  rotational number                       1      :
          :  scaling factor                  1.0000000      :
          :  rotor cutoff                   50.0000000 cm⁻¹ :
          :  imag. cutoff                  -20.0000000 cm⁻¹ :
          :.................................................:

    mode    ω/cm⁻¹     T·S(HO)/kcal·mol⁻¹    T·S(FR)/kcal·mol⁻¹   T·S(vib)
   ------------------------------------------------------------------------
       1     12.43    -2.25965 (  0.38%)    -1.46877 ( 99.62%)    -1.47178
       2     23.84    -1.87404 (  4.91%)    -1.27590 ( 95.09%)    -1.30530
       3     30.09    -1.73625 ( 11.60%)    -1.20693 ( 88.40%)    -1.26831
       4     37.54    -1.60552 ( 24.11%)    -1.14143 ( 75.89%)    -1.25332
       5     40.94    -1.55433 ( 31.00%)    -1.11576 ( 69.00%)    -1.25173
       6     45.92    -1.48654 ( 41.56%)    -1.08175 ( 58.44%)    -1.25000
       7     51.51    -1.41879 ( 52.97%)    -1.04772 ( 47.03%)    -1.24426
       8     54.95    -1.38066 ( 59.33%)    -1.02855 ( 40.67%)    -1.23746
       9     60.46    -1.32444 ( 68.13%)    -1.00026 ( 31.87%)    -1.22112
      10     67.17    -1.26253 ( 76.51%)    -0.96906 ( 23.49%)    -1.19360
      11     71.53    -1.22561 ( 80.73%)    -0.95043 ( 19.27%)    -1.17258
      12     75.48    -1.19413 ( 83.85%)    -0.93453 ( 16.15%)    -1.15221
      13     77.44    -1.17909 ( 85.20%)    -0.92692 ( 14.80%)    -1.14175
      14     84.93    -1.12509 ( 89.28%)    -0.89958 ( 10.72%)    -1.10091
      15     94.68    -1.06167 ( 92.78%)    -0.86737 (  7.22%)    -1.04766
      16    101.82    -1.01941 ( 94.51%)    -0.84584 (  5.49%)    -1.00987
      17    104.97    -1.00175 ( 95.10%)    -0.83683 (  4.90%)    -0.99368
      18    130.60    -0.87574 ( 97.90%)    -0.77212 (  2.10%)    -0.87356
      19    137.74    -0.84527 ( 98.29%)    -0.75635 (  1.71%)    -0.84376
      20    148.98    -0.80059 ( 98.75%)    -0.73310 (  1.25%)    -0.79975
      21    157.67    -0.76850 ( 99.00%)    -0.71631 (  1.00%)    -0.76797
      22    171.32    -0.72181 ( 99.28%)    -0.69172 (  0.72%)    -0.72159
      23    180.30    -0.69328 ( 99.41%)    -0.67658 (  0.59%)    -0.69318
      24    194.89    -0.65022 ( 99.57%)    -0.65354 (  0.43%)    -0.65023
      25    197.29    -0.64347 ( 99.59%)    -0.64990 (  0.41%)    -0.64350
      26    221.52    -0.58040 ( 99.74%)    -0.61560 (  0.26%)    -0.58049
      27    255.64    -0.50427 ( 99.85%)    -0.57315 (  0.15%)    -0.50437
      28    261.84    -0.49178 ( 99.87%)    -0.56605 (  0.13%)    -0.49188
      29    267.02    -0.48164 ( 99.88%)    -0.56025 (  0.12%)    -0.48174
      30    288.22    -0.44257 ( 99.91%)    -0.53762 (  0.09%)    -0.44265
   ------------------------------------------------------------------------

   temp. (K)  partition function   enthalpy   heat capacity  entropy
                                   cal/mol     cal/K/mol   cal/K/mol   J/K/mol
 298.15  VIB  0.353E+16            18889.126    104.404    123.104
         ROT  0.119E+08              888.752      2.981     35.351
         INT  0.419E+23            19777.878    107.385    158.455
         TR   0.618E+28             1481.254      4.968     43.384
         TOT                       21259.1319   112.3527   201.8391   844.4950

       T/K    H(0)-H(T)+PV         H(T)/Eh          T*S/Eh         G(T)/Eh
   ------------------------------------------------------------------------
    298.15    0.338786E-01    0.473674E+00    0.959003E-01    0.377774E+00
   ------------------------------------------------------------------------

         :::::::::::::::::::::::::::::::::::::::::::::::::::::
         ::                  THERMODYNAMIC                  ::
         :::::::::::::::::::::::::::::::::::::::::::::::::::::
         :: total free energy         -80.558052109311 Eh   ::
         ::.................................................::
         :: total energy              -80.935826292994 Eh   ::
         :: zero point energy           0.439795890641 Eh   ::
         :: G(RRHO) w/o ZPVE           -0.062021706957 Eh   ::
         :: G(RRHO) contrib.            0.377774183684 Eh   ::
         :::::::::::::::::::::::::::::::::::::::::::::::::::::

           -------------------------------------------------
          | TOTAL ENERGY              -80.935826292994 Eh   |
          | TOTAL ENTHALPY            -80.462151819182 Eh   |
          | TOTAL FREE ENERGY         -80.558052109311 Eh   |
          | GRADIENT NORM               0.000185083273 Eh/α |
          | HOMO-LUMO GAP               5.664532218131 eV   |
           -------------------------------------------------

------------------------------------------------------------------------
 * finished run on 2024/01/10 at 15:35:12.940     
------------------------------------------------------------------------
 total:
 * wall-time:     0 d,  0 h,  0 min, 14.677 sec
 *  cpu-time:     0 d,  0 h,  0 min, 14.599 sec
 * ratio c/w:     0.995 speedup
 SCF:
 * wall-time:     0 d,  0 h,  0 min,  0.099 sec
 *  cpu-time:     0 d,  0 h,  0 min,  0.060 sec
 * ratio c/w:     0.606 speedup
 analytical hessian:
 * wall-time:     0 d,  0 h,  0 min, 14.550 sec
 *  cpu-time:     0 d,  0 h,  0 min, 14.512 sec
 * ratio c/w:     0.997 speedup

