 Entering Gaussian System
 *********************************************
 Gaussian 98:
 frequency output generated by the xtb code
 *********************************************
                         Standard orientation:
 --------------------------------------------------------------------
  Center     Atomic     Atomic              Coordinates (Angstroms)
  Number     Number      Type              X           Y           Z
 --------------------------------------------------------------------
    1          8             0        2.229947   -2.539629    1.531616
    2          6             0        2.297835   -1.145755    1.444657
    3          1             0        1.811988   -0.746623    2.338556
    4          1             0        3.347296   -0.813062    1.462899
    5          6             0        1.693456   -0.573073    0.158279
    6          1             0        2.179599   -1.072095   -0.683841
    7          1             0        1.905808    0.498652    0.124912
    8          7             0        0.225461   -0.738449   -0.011865
    9          6             0       -0.512117   -0.013178    1.032519
   10          1             0       -0.197555    1.026347    1.041931
   11          1             0       -0.334305   -0.461928    2.005625
   12          1             0       -1.574924   -0.064285    0.800070
   13          6             0       -0.183787   -2.151937    0.003459
   14          1             0       -1.247859   -2.204297   -0.220851
   15          1             0        0.007468   -2.587330    0.981418
   16          1             0        0.384200   -2.709072   -0.739667
   17          6             0       -0.144691   -0.167790   -1.317741
   18          1             0        0.341808   -0.723988   -2.116033
   19          1             0        0.160434    0.874901   -1.362006
   20          1             0       -1.226675   -0.233566   -1.431480
   21          1             0        2.449380   -2.895427    0.638366
   22          6             0        3.405748   -4.418979   -1.031243
   23          8             0        2.712925   -3.403851   -0.994077
   24          7             0        3.768008   -4.989126   -2.200481
   25          1             0        3.502480   -4.540524   -3.058618
   26          1             0        4.373733   -5.787597   -2.244518
   27          7             0        3.846625   -5.025680    0.091715
   28          1             0        4.372222   -5.879857    0.065503
   29          1             0        3.561646   -4.665976    0.987018
   30          6             0       -1.755694    3.158484   -1.049288
   31          8             0       -2.049233    2.820431    0.100488
   32          7             0       -0.477460    3.242594   -1.460607
   33          1             0        0.265328    3.100026   -0.771606
   34          1             0       -0.242212    3.653834   -2.345359
   35          7             0       -2.711338    3.440757   -1.963992
   36          1             0       -2.489495    3.637305   -2.922506
   37          1             0       -3.673425    3.292040   -1.716931
   38          6             0        1.167523    3.268497    1.579820
   39          8             0        1.378988    2.639732    0.538435
   40          7             0       -0.078778    3.563916    1.985388
   41          1             0       -0.868574    3.307210    1.390623
   42          1             0       -0.250387    4.107144    2.811037
   43          7             0        2.184365    3.642562    2.390946
   44          1             0        2.038058    4.232145    3.189695
   45          1             0        3.125826    3.498742    2.072017
   46          6             0       -4.204940   -0.149416   -0.226180
   47          8             0       -3.113890   -0.630686   -0.507796
   48          7             0       -5.329309   -0.910250   -0.187111
   49          1             0       -5.270485   -1.855231   -0.522771
   50          1             0       -6.241544   -0.502086   -0.093789
   51          7             0       -4.367453    1.163727    0.057680
   52          1             0       -5.225585    1.486259    0.468402
   53          1             0       -3.536168    1.736182    0.198283
 --------------------------------------------------------------------
     1 basis functions        1 primitive gaussians
     1 alpha electrons        1 beta electrons

 Harmonic frequencies (cm**-1), IR intensities (km*mol⁻¹),
 Raman scattering activities (A**4/amu), Raman depolarization ratios,
 reduced masses (AMU), force constants (mDyne/A) and normal coordinates:
                      1                      2                      3
                        a                      a                      a 
 Frequencies --    13.4361                14.5915                19.8550
 Red. masses --    12.1822                12.2233                11.6974
 Frc consts  --     0.0000                 0.0000                 0.0000
 IR Inten    --     1.5503                 1.4575                 0.8704
 Raman Activ --     0.0000                 0.0000                 0.0000
 Depolar     --     0.0000                 0.0000                 0.0000
 Atom AN      X      Y      Z        X      Y      Z        X      Y      Z
   1   8    -0.06   0.01  -0.01    -0.16  -0.02  -0.02    -0.16  -0.25   0.15
   2   6     0.02   0.01  -0.02    -0.10  -0.03  -0.06    -0.10  -0.21   0.25
   3   1     0.00   0.01  -0.01    -0.03   0.01  -0.02    -0.05  -0.08   0.07
   4   1     0.01  -0.01   0.00    -0.03  -0.01  -0.02    -0.03  -0.07   0.10
   5   6     0.08   0.03  -0.05    -0.09  -0.05  -0.08     0.00  -0.10   0.25
   6   1     0.03   0.00  -0.01    -0.03  -0.02  -0.02     0.01  -0.02   0.07
   7   1     0.03   0.01  -0.01    -0.02  -0.02  -0.03     0.02  -0.03   0.09
   8   7     0.09   0.07  -0.11    -0.10  -0.05  -0.08     0.01  -0.02   0.17
   9   6     0.06   0.05  -0.10    -0.09  -0.05  -0.07    -0.02  -0.01   0.12
  10   1     0.03   0.01  -0.01    -0.02  -0.02  -0.01     0.00  -0.00   0.04
  11   1     0.00   0.00  -0.03    -0.03  -0.02  -0.02    -0.03  -0.01   0.04
  12   1     0.02   0.03  -0.04    -0.03  -0.01  -0.02    -0.00   0.01   0.02
  13   6     0.05   0.08  -0.17    -0.10  -0.04  -0.09    -0.07   0.00   0.09
  14   1     0.02   0.03  -0.06    -0.03  -0.01  -0.02    -0.02   0.02   0.01
  15   1     0.00   0.01  -0.05    -0.03  -0.02  -0.03    -0.04  -0.01   0.03
  16   1     0.02   0.02  -0.05    -0.03  -0.01  -0.03    -0.02  -0.00   0.03
  17   6     0.15   0.12  -0.09    -0.10  -0.03  -0.07     0.12   0.03   0.14
  18   1     0.05   0.04  -0.03    -0.03  -0.01  -0.02     0.04   0.01   0.05
  19   1     0.05   0.03  -0.01    -0.03  -0.01  -0.02     0.06   0.00   0.06
  20   1     0.04   0.04  -0.04    -0.03  -0.01  -0.02     0.04   0.03   0.02
  21   1    -0.00  -0.00   0.00    -0.03  -0.02   0.00    -0.03  -0.04   0.03
  22   6    -0.05  -0.12   0.10     0.20   0.06   0.10     0.01   0.09  -0.09
  23   8     0.05  -0.06   0.04     0.03  -0.06   0.05    -0.03   0.07   0.05
  24   7    -0.03  -0.19   0.14     0.35   0.07   0.15     0.15   0.35  -0.17
  25   1     0.03  -0.05   0.03     0.07  -0.01   0.03     0.05   0.13  -0.03
  26   1    -0.02  -0.06   0.05     0.13   0.04   0.05     0.04   0.10  -0.07
  27   7    -0.20  -0.16   0.15     0.31   0.22   0.15    -0.06  -0.10  -0.17
  28   1    -0.08  -0.06   0.05     0.12   0.08   0.06     0.00  -0.01  -0.08
  29   1    -0.06  -0.03   0.03     0.06   0.05   0.03    -0.03  -0.07  -0.03
  30   6    -0.16   0.02   0.17    -0.04   0.03   0.07    -0.05  -0.05  -0.01
  31   8    -0.08  -0.01   0.21     0.02   0.02   0.09    -0.01  -0.00   0.02
  32   7    -0.20   0.10   0.10    -0.06  -0.00   0.00    -0.07  -0.00  -0.04
  33   1    -0.04   0.03   0.01    -0.01  -0.01  -0.01    -0.01   0.00  -0.02
  34   1    -0.08   0.03   0.02    -0.03   0.00  -0.00    -0.03  -0.02  -0.02
  35   7    -0.25  -0.01   0.26    -0.08   0.08   0.14    -0.09  -0.14   0.00
  36   1    -0.09  -0.00   0.06    -0.04   0.02   0.03    -0.03  -0.05  -0.00
  37   1    -0.06  -0.02   0.09    -0.02   0.02   0.05    -0.02  -0.05   0.01
  38   6     0.04   0.05  -0.05     0.10  -0.14  -0.07     0.06   0.04  -0.13
  39   8    -0.02   0.07  -0.08     0.04  -0.12  -0.13     0.01  -0.05  -0.11
  40   7     0.07   0.01   0.05     0.15  -0.11  -0.00     0.08   0.08  -0.11
  41   1     0.01  -0.00   0.03     0.03  -0.01   0.01     0.01   0.01  -0.02
  42   1     0.03   0.00   0.02     0.06  -0.04   0.01     0.03   0.05  -0.04
  43   7     0.10   0.09  -0.14     0.17  -0.24  -0.11     0.10   0.12  -0.23
  44   1     0.04   0.02  -0.03     0.06  -0.07  -0.02     0.04   0.05  -0.07
  45   1     0.02   0.03  -0.06     0.04  -0.07  -0.05     0.02   0.02  -0.07
  46   6     0.08  -0.03  -0.10    -0.10   0.11   0.00     0.03   0.04  -0.05
  47   8     0.12   0.10  -0.23    -0.14   0.10  -0.06     0.05   0.09  -0.06
  48   7     0.14  -0.12  -0.20    -0.14   0.16  -0.02     0.05   0.01  -0.11
  49   1     0.05  -0.02  -0.10    -0.05   0.05  -0.02     0.02   0.01  -0.04
  50   1     0.03  -0.05  -0.03    -0.03   0.05   0.01     0.01  -0.00  -0.03
  51   7    -0.00  -0.09   0.13    -0.05   0.11   0.09    -0.01   0.02   0.01
  52   1    -0.00  -0.06   0.06    -0.01   0.03   0.04    -0.00  -0.01   0.01
  53   1    -0.01  -0.02   0.05    -0.01   0.02   0.03    -0.00   0.01   0.01
                      4                      5                      6
                        a                      a                      a 
 Frequencies --    26.2390                29.5927                30.9269
 Red. masses --    12.0591                11.9771                12.4684
 Frc consts  --     0.0000                 0.0000                 0.0000
 IR Inten    --     1.8215                 1.6346                 2.2860
 Raman Activ --     0.0000                 0.0000                 0.0000
 Depolar     --     0.0000                 0.0000                 0.0000
 Atom AN      X      Y      Z        X      Y      Z        X      Y      Z
   1   8    -0.02  -0.02  -0.01     0.01  -0.06   0.08    -0.20  -0.28  -0.11
   2   6     0.01  -0.01   0.02     0.02  -0.05   0.10    -0.03  -0.25  -0.05
   3   1     0.01  -0.01   0.01     0.01  -0.02   0.03     0.00  -0.07  -0.01
   4   1     0.00  -0.01   0.00     0.01  -0.02   0.03     0.00  -0.10  -0.01
   5   6     0.00   0.02   0.04     0.02  -0.01   0.11     0.03  -0.14  -0.03
   6   1     0.00   0.01   0.01     0.00   0.00   0.03    -0.00  -0.04  -0.01
   7   1    -0.00   0.01   0.02     0.01  -0.00   0.04     0.04  -0.05   0.00
   8   7     0.00   0.01   0.04     0.02   0.00   0.11     0.02  -0.00  -0.05
   9   6    -0.01  -0.10   0.11     0.01  -0.04   0.12     0.09   0.02  -0.02
  10   1    -0.02  -0.02   0.05    -0.00  -0.01   0.04     0.06  -0.00   0.01
  11   1     0.01  -0.05   0.02     0.01  -0.02   0.03     0.01  -0.02  -0.01
  12   1    -0.00  -0.04   0.04     0.00  -0.02   0.04     0.02   0.04  -0.01
  13   6     0.03   0.00  -0.08     0.01   0.00   0.04    -0.11   0.04  -0.12
  14   1     0.01   0.00  -0.03     0.00   0.00   0.00    -0.03   0.04  -0.03
  15   1     0.01  -0.02  -0.04    -0.00  -0.01   0.01    -0.04  -0.01  -0.04
  16   1     0.01   0.02  -0.04     0.01   0.01   0.01    -0.05   0.01  -0.04
  17   6    -0.02   0.13   0.09     0.04   0.06   0.12     0.08   0.10  -0.02
  18   1    -0.00   0.06   0.01     0.01   0.03   0.03     0.01   0.03  -0.01
  19   1    -0.01   0.04   0.06     0.01   0.02   0.05     0.05   0.02   0.01
  20   1    -0.01   0.03   0.03     0.01   0.02   0.03     0.02   0.05  -0.01
  21   1     0.01   0.00  -0.00    -0.01  -0.01   0.01    -0.05  -0.07  -0.03
  22   6     0.03  -0.03   0.03    -0.06   0.02  -0.01     0.09  -0.12  -0.01
  23   8     0.14   0.04   0.02    -0.15  -0.04   0.03    -0.07  -0.25  -0.08
  24   7     0.22   0.07   0.04    -0.42  -0.19  -0.02     0.15  -0.17   0.02
  25   1     0.11   0.05   0.01    -0.18  -0.09  -0.00     0.01  -0.08  -0.00
  26   1     0.03  -0.00   0.02    -0.08  -0.02  -0.02     0.07  -0.02   0.02
  27   7    -0.26  -0.21   0.05     0.40   0.29  -0.04     0.24   0.04   0.02
  28   1    -0.08  -0.06   0.02     0.09   0.07  -0.01     0.09   0.02   0.02
  29   1    -0.09  -0.07   0.01     0.15   0.10  -0.00     0.05   0.01   0.00
  30   6    -0.03   0.23  -0.08    -0.04   0.13   0.01    -0.01   0.07  -0.05
  31   8    -0.04   0.08  -0.15    -0.02   0.02  -0.02    -0.08   0.11  -0.07
  32   7    -0.03   0.28  -0.08    -0.05   0.17  -0.01     0.02   0.06   0.02
  33   1    -0.01   0.04  -0.03    -0.01   0.02  -0.01    -0.01   0.01   0.02
  34   1    -0.01   0.10  -0.01    -0.02   0.06   0.00     0.02   0.01   0.01
  35   7    -0.03   0.41  -0.04    -0.06   0.25   0.07     0.05   0.08  -0.11
  36   1    -0.01   0.16  -0.00    -0.02   0.10   0.02     0.03   0.02  -0.03
  37   1    -0.01   0.12  -0.01    -0.02   0.07   0.02     0.01   0.03  -0.04
  38   6    -0.04  -0.11  -0.09     0.02  -0.05  -0.07    -0.12   0.12   0.05
  39   8    -0.04  -0.03  -0.16    -0.01  -0.03  -0.10    -0.09   0.03   0.13
  40   7    -0.04  -0.18  -0.05     0.03  -0.09  -0.02    -0.16   0.10   0.00
  41   1    -0.01  -0.02  -0.03     0.00  -0.02  -0.01    -0.03   0.01  -0.00
  42   1    -0.01  -0.06  -0.01     0.01  -0.02  -0.01    -0.05   0.05  -0.02
  43   7    -0.03  -0.20  -0.06     0.04  -0.05  -0.11    -0.17   0.28   0.02
  44   1    -0.01  -0.07  -0.00     0.02  -0.02  -0.02    -0.06   0.08  -0.00
  45   1    -0.01  -0.04  -0.02     0.01  -0.01  -0.04    -0.04   0.07   0.02
  46   6     0.04  -0.10   0.08     0.05  -0.08  -0.09     0.06   0.05   0.10
  47   8     0.03  -0.15   0.13     0.08  -0.11   0.01     0.07   0.14  -0.00
  48   7     0.04  -0.10   0.22     0.05  -0.08  -0.18     0.13  -0.05   0.26
  49   1     0.01  -0.04   0.08     0.02  -0.02  -0.04     0.05  -0.01   0.07
  50   1     0.01  -0.02   0.04     0.01  -0.02  -0.07     0.03  -0.03   0.09
  51   7     0.05  -0.07  -0.07     0.03  -0.08  -0.14    -0.01   0.04   0.09
  52   1     0.01  -0.00  -0.03    -0.00  -0.02  -0.06     0.00  -0.00   0.04
  53   1     0.01  -0.01  -0.04     0.01  -0.02  -0.03    -0.01   0.03  -0.00
                      7                      8                      9
                        a                      a                      a 
 Frequencies --    39.1978                43.8476                47.6365
 Red. masses --    12.1031                12.7647                12.0504
 Frc consts  --     0.0000                 0.0000                 0.0000
 IR Inten    --     3.8442                 4.9784                 1.3263
 Raman Activ --     0.0000                 0.0000                 0.0000
 Depolar     --     0.0000                 0.0000                 0.0000
 Atom AN      X      Y      Z        X      Y      Z        X      Y      Z
   1   8    -0.14   0.02   0.07    -0.23   0.04   0.07     0.08   0.02   0.12
   2   6    -0.07   0.02   0.08    -0.15   0.03  -0.00     0.01   0.02   0.05
   3   1    -0.03   0.01   0.02    -0.05   0.03  -0.01    -0.02   0.01   0.00
   4   1    -0.02  -0.00   0.04    -0.04  -0.00   0.00    -0.00   0.02   0.03
   5   6     0.03   0.06   0.06    -0.08  -0.02  -0.05     0.04  -0.06   0.00
   6   1     0.02   0.02   0.02    -0.02  -0.02  -0.00     0.02  -0.03   0.01
   7   1     0.01   0.02   0.03    -0.02  -0.01  -0.03     0.01  -0.02  -0.02
   8   7     0.04   0.09  -0.05    -0.09   0.01  -0.10     0.05  -0.08  -0.03
   9   6    -0.02   0.04  -0.06    -0.08   0.10  -0.15     0.02   0.08  -0.15
  10   1    -0.01   0.01  -0.00    -0.02   0.03  -0.06     0.01   0.02  -0.08
  11   1    -0.02  -0.00  -0.02    -0.03   0.04  -0.04    -0.01   0.06  -0.03
  12   1    -0.00   0.01  -0.03    -0.02   0.03  -0.05     0.01   0.02  -0.05
  13   6     0.01   0.09  -0.14    -0.13   0.03  -0.02     0.04  -0.07   0.14
  14   1     0.01   0.03  -0.07    -0.04   0.02  -0.01     0.01  -0.03   0.04
  15   1    -0.02   0.01  -0.04    -0.05   0.02   0.00     0.01   0.02   0.06
  16   1     0.02   0.03  -0.04    -0.04  -0.01   0.01     0.02  -0.05   0.07
  17   6     0.13   0.15  -0.04    -0.03  -0.06  -0.14     0.10  -0.24  -0.12
  18   1     0.05   0.05  -0.01     0.00  -0.03  -0.02     0.03  -0.10  -0.01
  19   1     0.05   0.04   0.01    -0.01  -0.02  -0.06     0.03  -0.07  -0.07
  20   1     0.04   0.05  -0.03    -0.01  -0.02  -0.05     0.03  -0.07  -0.04
  21   1    -0.03   0.01   0.02    -0.06  -0.00   0.02     0.03  -0.00   0.04
  22   6    -0.07   0.08   0.02    -0.10   0.10   0.03     0.02  -0.02  -0.01
  23   8    -0.08   0.10   0.05    -0.24   0.03   0.06     0.03  -0.02   0.10
  24   7    -0.18   0.05   0.01    -0.00   0.21   0.02    -0.04   0.06  -0.07
  25   1    -0.06   0.01   0.01    -0.02   0.05   0.01    -0.02   0.03  -0.01
  26   1    -0.04   0.02  -0.00     0.01   0.06  -0.00    -0.01   0.02  -0.04
  27   7     0.03   0.13   0.01    -0.07   0.12   0.02     0.06  -0.10  -0.07
  28   1    -0.00   0.03  -0.00     0.01   0.05   0.00     0.02  -0.03  -0.04
  29   1     0.01   0.04   0.00    -0.03   0.02   0.01     0.03  -0.04  -0.01
  30   6    -0.00  -0.06  -0.10     0.13   0.01   0.04    -0.08   0.10   0.01
  31   8     0.02   0.00  -0.09     0.13  -0.14  -0.00    -0.15   0.23   0.03
  32   7    -0.01   0.11  -0.07     0.14  -0.03   0.04    -0.08  -0.27  -0.05
  33   1     0.00   0.05  -0.02     0.04  -0.02   0.01    -0.03  -0.07  -0.00
  34   1    -0.01   0.00  -0.03     0.04   0.03   0.03    -0.00  -0.07  -0.01
  35   7    -0.02  -0.33  -0.17     0.15   0.20   0.08    -0.05   0.36   0.04
  36   1    -0.01  -0.09  -0.05     0.04   0.09   0.03    -0.01   0.06   0.00
  37   1    -0.00  -0.11  -0.05     0.04   0.07   0.02    -0.02   0.17   0.02
  38   6    -0.00  -0.12   0.01     0.10   0.06   0.02    -0.06  -0.01  -0.00
  39   8     0.01   0.03  -0.09     0.12   0.01   0.06    -0.11  -0.10   0.04
  40   7    -0.00  -0.04  -0.06     0.10   0.03   0.03    -0.02   0.36  -0.17
  41   1     0.00   0.01  -0.03     0.03  -0.01   0.02    -0.01   0.08  -0.03
  42   1    -0.00  -0.06   0.02     0.02   0.02  -0.00     0.00   0.07  -0.03
  43   7    -0.03  -0.44   0.19     0.10   0.20  -0.04    -0.05  -0.28   0.12
  44   1    -0.01  -0.12   0.05     0.02   0.05  -0.01     0.00  -0.02  -0.00
  45   1    -0.01  -0.10   0.05     0.03   0.05  -0.01    -0.02  -0.11   0.04
  46   6     0.08   0.02   0.07     0.05  -0.22  -0.00     0.04   0.01   0.00
  47   8     0.07   0.12  -0.19     0.01  -0.27  -0.18     0.05   0.09  -0.11
  48   7     0.16  -0.07   0.27     0.05  -0.22   0.15     0.08  -0.05   0.01
  49   1     0.04  -0.01   0.05    -0.00  -0.06   0.03     0.03  -0.00  -0.02
  50   1     0.04  -0.04   0.12     0.02  -0.06   0.07     0.02  -0.03   0.02
  51   7     0.05  -0.01   0.18     0.13  -0.25   0.06    -0.00  -0.03   0.13
  52   1     0.03  -0.02   0.10     0.05  -0.06   0.04    -0.00  -0.02   0.04
  53   1     0.01   0.01   0.02     0.04  -0.07  -0.01    -0.01   0.01   0.02
                     10                     11                     12
                        a                      a                      a 
 Frequencies --    52.2919                59.1951                70.7238
 Red. masses --    12.7820                12.3761                12.7145
 Frc consts  --     0.0000                 0.0000                 0.0000
 IR Inten    --     1.0070                 4.7119                 5.6167
 Raman Activ --     0.0000                 0.0000                 0.0000
 Depolar     --     0.0000                 0.0000                 0.0000
 Atom AN      X      Y      Z        X      Y      Z        X      Y      Z
   1   8    -0.05  -0.07  -0.14     0.02  -0.07  -0.10    -0.19   0.14   0.23
   2   6     0.03  -0.06  -0.10    -0.15  -0.04   0.12    -0.03   0.10  -0.03
   3   1     0.04  -0.01  -0.02    -0.08  -0.06   0.04     0.01   0.08  -0.02
   4   1     0.02  -0.04  -0.05    -0.06   0.03   0.08    -0.00   0.00  -0.03
   5   6    -0.02   0.00  -0.04    -0.09   0.07   0.14    -0.01  -0.02  -0.10
   6   1    -0.03   0.00  -0.03     0.00   0.06   0.03    -0.01  -0.04  -0.01
   7   1     0.01  -0.00  -0.01    -0.05   0.03   0.08     0.01  -0.01  -0.06
   8   7    -0.04   0.07   0.04    -0.07  -0.03   0.01    -0.02   0.02  -0.08
   9   6     0.05   0.07   0.10    -0.20  -0.17   0.01     0.01   0.02  -0.05
  10   1     0.02   0.02   0.02    -0.09  -0.04   0.03     0.02   0.00  -0.01
  11   1     0.04   0.02   0.02    -0.07  -0.06  -0.00     0.00  -0.01  -0.02
  12   1     0.01   0.02   0.06    -0.05  -0.07  -0.02     0.00   0.02  -0.01
  13   6    -0.10   0.09   0.03     0.05  -0.07  -0.14    -0.04   0.03  -0.09
  14   1    -0.03   0.04   0.02     0.02  -0.04  -0.06    -0.01   0.01  -0.02
  15   1    -0.02   0.02   0.00     0.01  -0.04  -0.05    -0.00   0.00  -0.03
  16   1    -0.05   0.02  -0.00     0.04   0.01  -0.05    -0.02   0.01  -0.03
  17   6    -0.09   0.12   0.08    -0.02   0.05   0.03    -0.04   0.06  -0.05
  18   1    -0.04   0.04   0.01     0.02   0.04   0.00    -0.01   0.03  -0.02
  19   1    -0.02   0.03   0.03    -0.02   0.02   0.04    -0.02   0.02  -0.01
  20   1    -0.03   0.04   0.04    -0.00  -0.00  -0.01    -0.01   0.01  -0.01
  21   1    -0.04  -0.02  -0.04     0.05   0.03  -0.03     0.00  -0.02   0.09
  22   6    -0.02  -0.03  -0.01     0.12   0.01  -0.03     0.12  -0.14   0.02
  23   8    -0.14  -0.10  -0.12     0.44   0.23  -0.10     0.19  -0.14   0.36
  24   7     0.16  -0.02   0.04    -0.15  -0.25   0.01    -0.12   0.05  -0.15
  25   1     0.03  -0.03   0.00     0.03  -0.04  -0.00    -0.04   0.08  -0.00
  26   1     0.05  -0.00   0.03    -0.05  -0.07   0.02    -0.02   0.03  -0.11
  27   7    -0.06   0.06   0.05     0.04   0.02   0.01     0.30  -0.38  -0.17
  28   1     0.02   0.04   0.04    -0.09  -0.05   0.02     0.05  -0.12  -0.11
  29   1    -0.04   0.02   0.00     0.02   0.03  -0.00     0.10  -0.16  -0.02
  30   6    -0.01  -0.01   0.04     0.06   0.00   0.01     0.00  -0.01   0.04
  31   8     0.03  -0.05   0.05     0.08  -0.06  -0.00     0.04  -0.14   0.02
  32   7    -0.02   0.13   0.05     0.07   0.05   0.02    -0.01   0.19   0.06
  33   1    -0.00   0.04   0.01     0.02   0.00   0.01     0.00   0.05   0.01
  34   1    -0.01   0.04   0.01     0.02   0.02   0.01    -0.01   0.07   0.02
  35   7    -0.03  -0.14   0.04     0.06   0.02   0.03    -0.03  -0.07   0.06
  36   1    -0.01  -0.01   0.01     0.02   0.02   0.01    -0.01   0.01   0.02
  37   1    -0.01  -0.05   0.01     0.02  -0.00   0.01    -0.00  -0.06   0.01
  38   6     0.06   0.08   0.00     0.01   0.07  -0.01     0.02   0.06   0.01
  39   8     0.02   0.04   0.03    -0.05  -0.11   0.09     0.03   0.09  -0.00
  40   7     0.10   0.54  -0.22     0.04   0.33  -0.11     0.02   0.11  -0.02
  41   1     0.02   0.11  -0.03     0.01   0.06  -0.01     0.01   0.01   0.00
  42   1     0.03   0.09  -0.02     0.02   0.11  -0.04     0.00   0.00   0.01
  43   7     0.06  -0.28   0.19     0.04   0.08  -0.05     0.01   0.00   0.05
  44   1     0.03  -0.01   0.01     0.02   0.06  -0.04     0.00   0.01   0.01
  45   1     0.01  -0.10   0.06     0.01  -0.02  -0.00     0.00   0.01   0.01
  46   6     0.01  -0.11  -0.01    -0.06  -0.03   0.00    -0.06  -0.00  -0.01
  47   8     0.04  -0.20   0.21    -0.14  -0.09  -0.19    -0.07  -0.04   0.04
  48   7    -0.02  -0.07  -0.15    -0.11   0.04   0.10    -0.07   0.01   0.12
  49   1    -0.00  -0.03  -0.01    -0.06   0.02   0.00    -0.02  -0.01   0.06
  50   1    -0.01  -0.01  -0.08    -0.02   0.03   0.06    -0.02   0.01   0.01
  51   7     0.02  -0.09  -0.15     0.06  -0.05   0.13    -0.07   0.05  -0.22
  52   1    -0.01  -0.01  -0.08     0.03  -0.00   0.07    -0.01   0.02  -0.05
  53   1     0.01  -0.03  -0.01     0.03  -0.02   0.01    -0.01   0.00  -0.04
                     13                     14                     15
                        a                      a                      a 
 Frequencies --    76.3990                79.6112                89.7685
 Red. masses --    12.3824                11.6957                13.5322
 Frc consts  --     0.0000                 0.0000                 0.0000
 IR Inten    --     2.9537                 7.1451                 7.8358
 Raman Activ --     0.0000                 0.0000                 0.0000
 Depolar     --     0.0000                 0.0000                 0.0000
 Atom AN      X      Y      Z        X      Y      Z        X      Y      Z
   1   8    -0.02   0.08   0.06     0.10   0.11   0.11    -0.22   0.04   0.04
   2   6     0.05   0.06  -0.06     0.14   0.08  -0.05    -0.05   0.02  -0.06
   3   1     0.04   0.04  -0.02     0.06   0.06  -0.02     0.00   0.04  -0.02
   4   1     0.02   0.00  -0.05     0.04   0.01  -0.04    -0.00  -0.02  -0.03
   5   6    -0.03   0.01  -0.05     0.08  -0.01  -0.06    -0.02  -0.02  -0.09
   6   1    -0.02  -0.00  -0.02     0.03   0.00  -0.02    -0.01  -0.02  -0.02
   7   1    -0.01   0.00  -0.03    -0.00   0.00  -0.02     0.00  -0.01  -0.04
   8   7    -0.03  -0.01   0.02     0.09  -0.14  -0.05    -0.03   0.02  -0.08
   9   6     0.00  -0.08   0.10     0.03  -0.36   0.08     0.02  -0.05   0.01
  10   1    -0.01  -0.02   0.04    -0.01  -0.10   0.08     0.02  -0.02   0.03
  11   1     0.02  -0.04   0.02     0.02  -0.16  -0.00     0.00  -0.05  -0.01
  12   1    -0.00  -0.03   0.04     0.01  -0.11   0.02     0.00   0.00   0.01
  13   6    -0.00  -0.02  -0.03     0.22  -0.17  -0.27    -0.06   0.03  -0.18
  14   1    -0.00  -0.01  -0.00     0.07  -0.07  -0.09    -0.02   0.02  -0.04
  15   1     0.01  -0.02  -0.02     0.06  -0.08  -0.09    -0.01  -0.02  -0.06
  16   1    -0.00   0.01  -0.02     0.09  -0.00  -0.09    -0.03   0.02  -0.07
  17   6    -0.11   0.05   0.07     0.01   0.05   0.05    -0.04   0.12  -0.03
  18   1    -0.04   0.03   0.00     0.01   0.06  -0.01    -0.01   0.05  -0.02
  19   1    -0.04   0.02   0.03    -0.02   0.02   0.06    -0.01   0.04   0.01
  20   1    -0.03   0.01   0.03     0.00  -0.00   0.02    -0.01   0.04  -0.00
  21   1    -0.01  -0.01   0.03    -0.01   0.00   0.03    -0.03  -0.01   0.02
  22   6     0.00  -0.07   0.01    -0.13   0.04   0.05     0.02   0.07   0.03
  23   8    -0.08  -0.14   0.11    -0.34  -0.08   0.09     0.16   0.17   0.08
  24   7     0.03   0.05  -0.04     0.02   0.20   0.03    -0.13   0.03   0.01
  25   1    -0.02   0.02  -0.00    -0.05   0.02   0.01    -0.00   0.04   0.01
  26   1     0.01   0.02  -0.03    -0.00   0.05  -0.00    -0.03   0.01  -0.01
  27   7     0.08  -0.12  -0.05    -0.08   0.07   0.03     0.00   0.02   0.01
  28   1     0.05  -0.02  -0.03     0.05   0.06   0.00    -0.05  -0.03  -0.01
  29   1     0.03  -0.05  -0.00    -0.02   0.01   0.01     0.01  -0.00   0.01
  30   6     0.05   0.05  -0.09     0.01  -0.01   0.04    -0.04   0.06   0.02
  31   8     0.07   0.07  -0.10    -0.00  -0.04   0.04    -0.22   0.47   0.09
  32   7     0.05   0.12  -0.08     0.02   0.04   0.09     0.01  -0.22   0.11
  33   1     0.01   0.03  -0.02     0.00  -0.01   0.02    -0.01  -0.05   0.05
  34   1     0.01   0.02  -0.03     0.01   0.01   0.02     0.04  -0.14  -0.00
  35   7     0.04  -0.03  -0.11     0.03  -0.00   0.03     0.10  -0.14  -0.19
  36   1     0.01   0.02  -0.02     0.01  -0.01   0.01     0.06  -0.07  -0.05
  37   1     0.01   0.01  -0.02     0.01  -0.02  -0.00     0.01   0.07  -0.06
  38   6    -0.06   0.03  -0.01    -0.05  -0.02  -0.01     0.05  -0.07   0.03
  39   8    -0.05   0.06  -0.02    -0.11  -0.27   0.12    -0.02  -0.21   0.09
  40   7    -0.08   0.01  -0.02    -0.02   0.20  -0.09     0.08  -0.04   0.09
  41   1    -0.01   0.01  -0.02    -0.01   0.02  -0.01     0.01   0.02   0.02
  42   1    -0.03   0.00  -0.01     0.00   0.09  -0.05     0.04   0.05  -0.01
  43   7    -0.09   0.02   0.02    -0.02   0.07  -0.09     0.12   0.04  -0.11
  44   1    -0.03   0.00   0.01     0.01   0.06  -0.05     0.05   0.00  -0.02
  45   1    -0.02   0.01   0.01    -0.01  -0.03  -0.01     0.03  -0.04  -0.02
  46   6     0.04  -0.04   0.06    -0.01   0.06  -0.03     0.05  -0.07   0.06
  47   8    -0.00  -0.11  -0.02    -0.02   0.08  -0.09     0.12  -0.11   0.31
  48   7    -0.08   0.13  -0.37     0.01   0.03   0.11     0.05  -0.08  -0.13
  49   1    -0.05   0.06  -0.17     0.00   0.01   0.03     0.03  -0.03   0.00
  50   1    -0.01   0.05  -0.05     0.00   0.01   0.03     0.01  -0.03  -0.06
  51   7     0.23  -0.15   0.62    -0.03   0.08  -0.10     0.01  -0.07  -0.02
  52   1     0.06  -0.02   0.14     0.00   0.01  -0.00    -0.02  -0.01  -0.07
  53   1     0.07  -0.04   0.13    -0.00   0.02  -0.02    -0.02  -0.00   0.01
                     16                     17                     18
                        a                      a                      a 
 Frequencies --    94.4274                99.1566               106.7246
 Red. masses --    13.1607                12.0291                12.5366
 Frc consts  --     0.0000                 0.0000                 0.0000
 IR Inten    --     2.2525                 6.1220                 1.9550
 Raman Activ --     0.0000                 0.0000                 0.0000
 Depolar     --     0.0000                 0.0000                 0.0000
 Atom AN      X      Y      Z        X      Y      Z        X      Y      Z
   1   8     0.17   0.08  -0.05     0.03   0.12  -0.05    -0.03   0.03  -0.04
   2   6    -0.01   0.07  -0.02     0.05   0.10  -0.08    -0.04   0.03   0.06
   3   1    -0.01   0.00   0.00     0.05   0.04  -0.01    -0.01  -0.01   0.02
   4   1    -0.01   0.05  -0.01     0.02   0.02  -0.06    -0.01   0.01   0.03
   5   6    -0.10   0.04   0.01    -0.08   0.09  -0.02    -0.04   0.12   0.10
   6   1    -0.03   0.02  -0.00    -0.05   0.03  -0.02     0.00   0.07   0.02
   7   1    -0.04   0.02   0.00    -0.02   0.03  -0.01    -0.03   0.04   0.06
   8   7    -0.11  -0.01   0.08    -0.11   0.10   0.13    -0.03   0.04   0.04
   9   6    -0.10   0.06   0.02    -0.02   0.01   0.24    -0.11  -0.13   0.09
  10   1    -0.05   0.02  -0.03     0.01  -0.00   0.10    -0.07  -0.02   0.05
  11   1    -0.01   0.05   0.02     0.00  -0.03   0.05    -0.02  -0.05   0.02
  12   1    -0.03  -0.01   0.02    -0.01   0.03   0.08    -0.03  -0.07   0.02
  13   6    -0.05  -0.03   0.21    -0.08   0.09   0.06     0.08   0.01  -0.14
  14   1    -0.01  -0.03   0.06    -0.03   0.03   0.03     0.03  -0.01  -0.07
  15   1    -0.01   0.02   0.07    -0.01   0.01   0.01     0.01  -0.02  -0.05
  16   1    -0.01  -0.02   0.08    -0.03   0.04  -0.00     0.05   0.03  -0.04
  17   6    -0.14  -0.13   0.03    -0.21   0.18   0.19    -0.02   0.14   0.08
  18   1    -0.04  -0.05   0.02    -0.08   0.06   0.03     0.01   0.07   0.01
  19   1    -0.05  -0.03  -0.01    -0.05   0.05   0.06    -0.02   0.05   0.05
  20   1    -0.04  -0.05   0.01    -0.06   0.06   0.08    -0.00   0.03   0.01
  21   1     0.03   0.02  -0.02     0.01   0.02  -0.01    -0.00   0.01  -0.01
  22   6     0.02  -0.09  -0.03     0.03  -0.06  -0.01    -0.01  -0.09  -0.02
  23   8    -0.06  -0.15  -0.04     0.03  -0.07   0.01    -0.12  -0.18  -0.01
  24   7     0.10  -0.04  -0.03     0.04  -0.04  -0.03     0.08  -0.02  -0.03
  25   1     0.00  -0.03  -0.01     0.01  -0.01  -0.01    -0.01  -0.02  -0.01
  26   1     0.02  -0.01  -0.01     0.01  -0.01  -0.01     0.03  -0.00  -0.01
  27   7     0.04  -0.07  -0.03     0.05  -0.08  -0.03     0.06  -0.06  -0.03
  28   1     0.04  -0.00  -0.01     0.01  -0.02  -0.01     0.04  -0.00  -0.01
  29   1     0.01  -0.02  -0.01     0.01  -0.03  -0.01     0.00  -0.03  -0.01
  30   6    -0.04   0.14   0.02     0.02  -0.06   0.00    -0.04  -0.04  -0.02
  31   8    -0.07   0.34   0.06    -0.09  -0.07  -0.03     0.04   0.20   0.07
  32   7    -0.03   0.33   0.11     0.06  -0.23   0.06    -0.07  -0.47  -0.22
  33   1    -0.01   0.06   0.02     0.01  -0.06   0.03    -0.01  -0.04  -0.04
  34   1    -0.00   0.01  -0.00     0.03  -0.05   0.03    -0.03  -0.12  -0.06
  35   7    -0.02  -0.23  -0.12     0.13   0.12  -0.05    -0.10   0.05   0.07
  36   1     0.00  -0.05  -0.03     0.06   0.01  -0.01    -0.05  -0.08  -0.00
  37   1    -0.01  -0.05  -0.03     0.02   0.05  -0.04    -0.02   0.05   0.05
  38   6    -0.00  -0.04   0.05     0.09  -0.04  -0.03     0.03   0.12   0.04
  39   8    -0.16  -0.14   0.08     0.18  -0.08   0.00     0.02   0.36  -0.08
  40   7     0.05  -0.00   0.19     0.06  -0.04  -0.13     0.03   0.01   0.15
  41   1     0.00   0.04   0.05     0.02  -0.02  -0.04     0.01   0.03   0.03
  42   1     0.04   0.06   0.02     0.00  -0.01  -0.04     0.01  -0.03   0.06
  43   7     0.11   0.01  -0.12     0.04  -0.00   0.02     0.04  -0.02   0.10
  44   1     0.06  -0.01  -0.02    -0.01   0.01  -0.00     0.01  -0.03   0.05
  45   1     0.02  -0.04  -0.04     0.02  -0.00   0.02     0.01   0.03   0.00
  46   6     0.09  -0.03  -0.12    -0.05   0.00  -0.08     0.06  -0.03  -0.06
  47   8     0.03  -0.06  -0.35     0.01   0.29  -0.29    -0.01  -0.18  -0.12
  48   7     0.09  -0.02   0.14     0.13  -0.26   0.01    -0.01   0.09   0.12
  49   1     0.00  -0.00   0.03     0.08  -0.05  -0.04    -0.04   0.02   0.05
  50   1     0.03   0.00   0.07     0.01  -0.13   0.03     0.01   0.05   0.04
  51   7     0.17  -0.02  -0.12    -0.29  -0.06   0.07     0.20   0.01  -0.16
  52   1     0.06  -0.00   0.00    -0.08  -0.07   0.06     0.07   0.02  -0.03
  53   1     0.05  -0.00  -0.05    -0.10   0.02   0.00     0.06  -0.01  -0.04
                     19                     20                     21
                        a                      a                      a 
 Frequencies --   111.0100               119.1857               134.5518
 Red. masses --    12.2597                12.9361                12.0709
 Frc consts  --     0.0000                 0.0000                 0.0000
 IR Inten    --     0.9603                27.8745                13.3337
 Raman Activ --     0.0000                 0.0000                 0.0000
 Depolar     --     0.0000                 0.0000                 0.0000
 Atom AN      X      Y      Z        X      Y      Z        X      Y      Z
   1   8     0.15   0.00  -0.00    -0.01  -0.09   0.04     0.03   0.13  -0.03
   2   6    -0.05   0.02   0.17     0.02  -0.09  -0.07    -0.24   0.13   0.11
   3   1    -0.07  -0.04   0.04     0.02  -0.00  -0.02    -0.13  -0.01   0.02
   4   1    -0.03   0.05   0.11     0.01  -0.03  -0.05    -0.09   0.10   0.08
   5   6     0.06   0.12   0.16    -0.04  -0.18  -0.09    -0.18   0.12   0.08
   6   1     0.05   0.06   0.05    -0.02  -0.07  -0.02    -0.01   0.06   0.03
   7   1     0.00   0.04   0.08    -0.01  -0.05  -0.05    -0.09   0.04   0.04
   8   7     0.09   0.05  -0.03    -0.05  -0.24  -0.01    -0.16  -0.04  -0.05
   9   6    -0.10   0.02  -0.14     0.01  -0.24   0.05    -0.27  -0.10  -0.09
  10   1    -0.05   0.01  -0.04     0.02  -0.07   0.03    -0.10  -0.02  -0.01
  11   1    -0.05   0.02  -0.03    -0.00  -0.09   0.00    -0.09  -0.03  -0.02
  12   1    -0.02  -0.02  -0.08     0.00  -0.05   0.02    -0.07  -0.05  -0.05
  13   6     0.17   0.02  -0.07    -0.01  -0.23  -0.00     0.01  -0.08  -0.06
  14   1     0.06  -0.02  -0.05    -0.01  -0.07   0.02     0.01  -0.06  -0.03
  15   1     0.02   0.01  -0.01     0.02  -0.07  -0.01    -0.00  -0.02  -0.01
  16   1     0.09   0.01   0.00    -0.01  -0.06  -0.01     0.03  -0.01  -0.01
  17   6     0.20   0.01  -0.08    -0.13  -0.21   0.02    -0.09  -0.09  -0.08
  18   1     0.09   0.00  -0.01    -0.04  -0.05  -0.00    -0.00  -0.03  -0.01
  19   1     0.05   0.01  -0.02    -0.05  -0.06   0.01    -0.04  -0.02  -0.02
  20   1     0.06  -0.01  -0.05    -0.04  -0.07   0.02    -0.02  -0.04  -0.04
  21   1     0.03   0.02  -0.01    -0.00  -0.03   0.01     0.02   0.05  -0.01
  22   6    -0.02  -0.10  -0.03    -0.01   0.08   0.03     0.00  -0.07  -0.04
  23   8    -0.18  -0.21  -0.05     0.07   0.16   0.02    -0.08  -0.13  -0.06
  24   7     0.11  -0.02  -0.03    -0.08   0.04   0.04     0.07  -0.06  -0.04
  25   1    -0.01  -0.04  -0.01    -0.00   0.02   0.01     0.02  -0.02  -0.01
  26   1     0.03  -0.01  -0.01    -0.03   0.01   0.01     0.04   0.00  -0.00
  27   7     0.04  -0.04  -0.03    -0.07   0.06   0.04     0.04  -0.03  -0.04
  28   1     0.06   0.02  -0.01    -0.03   0.01   0.01     0.02  -0.00  -0.01
  29   1    -0.00  -0.02  -0.01    -0.00   0.03   0.01    -0.01  -0.02  -0.01
  30   6    -0.02   0.09   0.01    -0.05   0.09   0.03     0.04  -0.03   0.03
  31   8    -0.18   0.19  -0.01    -0.12   0.18   0.04     0.05  -0.11   0.02
  32   7     0.02   0.12   0.15    -0.04   0.16   0.11     0.03   0.06   0.05
  33   1    -0.00   0.02   0.05    -0.01   0.05   0.03     0.01  -0.00   0.01
  34   1     0.03  -0.00   0.03    -0.01   0.01   0.01     0.01   0.02   0.01
  35   7     0.10  -0.04  -0.16    -0.02  -0.06  -0.06     0.03  -0.02   0.05
  36   1     0.06   0.01  -0.03     0.01   0.00  -0.01     0.00   0.03   0.02
  37   1     0.01   0.03  -0.07    -0.01   0.00  -0.02     0.01  -0.01   0.01
  38   6     0.12   0.03  -0.01     0.11   0.16  -0.03    -0.03   0.01  -0.04
  39   8     0.23   0.08  -0.03     0.31   0.43  -0.15     0.01   0.02  -0.05
  40   7     0.10  -0.04  -0.07     0.05  -0.00  -0.10    -0.04   0.01  -0.07
  41   1     0.03  -0.00  -0.03     0.02   0.00  -0.04    -0.01  -0.01  -0.02
  42   1     0.01  -0.02  -0.02    -0.02  -0.06   0.01    -0.02  -0.01  -0.01
  43   7     0.07   0.04   0.06    -0.01   0.04   0.20    -0.05   0.01  -0.02
  44   1     0.00   0.00   0.02    -0.04   0.00   0.06    -0.02   0.00  -0.01
  45   1     0.03   0.03   0.03     0.01   0.09   0.06    -0.01   0.01  -0.00
  46   6    -0.22  -0.08   0.05     0.02   0.01  -0.03     0.19   0.08   0.10
  47   8    -0.22  -0.05   0.10     0.04   0.07  -0.10     0.33   0.20   0.35
  48   7    -0.23  -0.11  -0.03     0.07  -0.05   0.01     0.31  -0.06  -0.11
  49   1    -0.05  -0.03  -0.01     0.03  -0.01  -0.01     0.14  -0.02   0.00
  50   1    -0.06  -0.03  -0.02     0.01  -0.03   0.01     0.06  -0.06  -0.06
  51   7    -0.27  -0.10   0.09    -0.02  -0.00  -0.00     0.03   0.08   0.01
  52   1    -0.08  -0.03   0.01    -0.01  -0.01   0.00    -0.02   0.01  -0.05
  53   1    -0.08  -0.02   0.02    -0.01   0.01  -0.01    -0.01   0.04   0.02
                     22                     23                     24
                        a                      a                      a 
 Frequencies --   147.2238               167.4778               177.7079
 Red. masses --    12.4235                 3.0956                13.3525
 Frc consts  --     0.0000                 0.0000                 0.0000
 IR Inten    --     6.3161                20.0928                21.9562
 Raman Activ --     0.0000                 0.0000                 0.0000
 Depolar     --     0.0000                 0.0000                 0.0000
 Atom AN      X      Y      Z        X      Y      Z        X      Y      Z
   1   8    -0.02   0.03  -0.02    -0.08   0.04   0.02     0.04   0.04   0.02
   2   6    -0.00   0.03   0.01     0.04   0.03  -0.00    -0.04   0.04   0.02
   3   1    -0.00   0.01   0.00     0.03   0.02   0.00    -0.03   0.00  -0.00
   4   1    -0.00   0.01   0.01     0.02  -0.02  -0.01    -0.02   0.03   0.02
   5   6     0.01   0.05   0.02     0.03   0.03   0.00    -0.02  -0.00  -0.00
   6   1    -0.00   0.01   0.00     0.01   0.01  -0.00    -0.00  -0.01   0.00
   7   1     0.01   0.01   0.01     0.00   0.01   0.00    -0.00  -0.00  -0.01
   8   7     0.00   0.07   0.02     0.03  -0.01   0.02    -0.02   0.00  -0.01
   9   6     0.00   0.08   0.01     0.02  -0.02   0.01    -0.01   0.01  -0.00
  10   1     0.01   0.02   0.01    -0.01  -0.00  -0.00     0.03  -0.01   0.02
  11   1    -0.00   0.02   0.00     0.02   0.00   0.01    -0.03  -0.02  -0.01
  12   1     0.00   0.03   0.00     0.01  -0.02   0.01    -0.00   0.03  -0.02
  13   6    -0.02   0.08   0.03     0.06  -0.02   0.03    -0.03   0.01  -0.01
  14   1    -0.01   0.03   0.01     0.02  -0.01  -0.00    -0.01   0.01   0.01
  15   1    -0.01   0.02   0.01     0.00   0.00   0.01     0.00  -0.00  -0.01
  16   1    -0.01   0.02   0.01     0.03  -0.01   0.02    -0.02   0.00  -0.01
  17   6     0.02   0.05   0.00     0.01  -0.04   0.01    -0.01   0.01  -0.01
  18   1     0.00   0.00   0.01    -0.00  -0.02   0.00     0.00   0.01  -0.00
  19   1     0.02   0.01  -0.01     0.00  -0.01  -0.01    -0.00   0.00   0.00
  20   1     0.01   0.02   0.00     0.00  -0.01   0.01    -0.00   0.00  -0.01
  21   1    -0.00   0.01  -0.00    -0.00   0.01   0.01     0.01   0.01   0.00
  22   6     0.01  -0.01  -0.01    -0.02   0.01  -0.02     0.00  -0.01  -0.01
  23   8     0.00  -0.02  -0.02    -0.09  -0.05  -0.06    -0.00  -0.01  -0.02
  24   7     0.02  -0.02  -0.01    -0.18  -0.19  -0.01     0.01  -0.01  -0.01
  25   1     0.01  -0.01  -0.00     0.37   0.24   0.01    -0.00  -0.01  -0.00
  26   1     0.01  -0.00   0.00     0.48   0.35   0.03    -0.00  -0.01   0.00
  27   7     0.01  -0.01  -0.01     0.17   0.15   0.00    -0.01  -0.00  -0.01
  28   1    -0.00  -0.00  -0.00    -0.35  -0.21  -0.01     0.01   0.01   0.00
  29   1    -0.00  -0.00  -0.00    -0.29  -0.18  -0.02     0.00   0.01  -0.00
  30   6    -0.00  -0.01   0.18    -0.01   0.01  -0.01    -0.23  -0.01  -0.15
  31   8    -0.12   0.07   0.21     0.00   0.01  -0.01    -0.16  -0.12  -0.19
  32   7     0.02  -0.07   0.30    -0.01   0.02  -0.01    -0.24   0.03  -0.18
  33   1     0.01  -0.05   0.07    -0.00   0.00  -0.00    -0.07   0.02  -0.05
  34   1     0.02  -0.08   0.06    -0.00   0.00  -0.00    -0.06   0.05  -0.03
  35   7     0.07  -0.09   0.12    -0.01   0.00  -0.00    -0.30   0.07  -0.09
  36   1     0.03   0.02   0.04    -0.00  -0.01  -0.00    -0.10   0.01  -0.03
  37   1     0.01   0.04   0.03    -0.00  -0.01  -0.00    -0.07  -0.03  -0.02
  38   6    -0.07  -0.09  -0.17     0.01  -0.00   0.01     0.21  -0.08   0.14
  39   8     0.22  -0.14  -0.13     0.01  -0.01   0.01     0.36  -0.29   0.32
  40   7    -0.16  -0.16  -0.45     0.00  -0.00   0.00     0.14  -0.05  -0.07
  41   1    -0.03  -0.07  -0.13     0.00   0.00  -0.00     0.06  -0.04  -0.02
  42   1    -0.08  -0.05  -0.12     0.00   0.00  -0.00     0.00   0.04  -0.06
  43   7    -0.28   0.03   0.01     0.00   0.01   0.01     0.06   0.19   0.24
  44   1    -0.14   0.02  -0.02    -0.00   0.00   0.00    -0.04   0.08   0.03
  45   1    -0.05   0.03   0.06     0.00   0.00   0.00     0.04   0.03   0.13
  46   6     0.08   0.01  -0.03    -0.01  -0.00  -0.01     0.07   0.03   0.01
  47   8     0.00  -0.16  -0.09    -0.01  -0.00  -0.02     0.05  -0.05   0.01
  48   7    -0.03   0.19   0.07    -0.01  -0.00   0.01     0.02   0.12  -0.00
  49   1    -0.06   0.05   0.03    -0.00   0.00  -0.00    -0.01   0.03   0.01
  50   1     0.01   0.09   0.03    -0.00   0.00   0.00     0.01   0.05   0.01
  51   7     0.26   0.04  -0.06    -0.01  -0.00   0.00     0.15   0.03  -0.00
  52   1     0.08   0.03  -0.01    -0.00  -0.00   0.00     0.04   0.02  -0.00
  53   1     0.08  -0.01  -0.01    -0.00  -0.00   0.00     0.04   0.01  -0.01
                     25                     26                     27
                        a                      a                      a 
 Frequencies --   194.6174               201.1538               216.7440
 Red. masses --    10.5260                12.8268                11.6642
 Frc consts  --     0.0000                 0.0000                 0.0000
 IR Inten    --     4.4877                71.1668                 6.8669
 Raman Activ --     0.0000                 0.0000                 0.0000
 Depolar     --     0.0000                 0.0000                 0.0000
 Atom AN      X      Y      Z        X      Y      Z        X      Y      Z
   1   8    -0.63   0.07  -0.08    -0.10   0.01  -0.03     0.20  -0.26  -0.44
   2   6     0.11   0.03  -0.08     0.03  -0.00  -0.01     0.08  -0.23  -0.17
   3   1     0.13   0.07   0.01     0.03   0.01   0.00     0.05  -0.12  -0.01
   4   1     0.07  -0.13  -0.09     0.02  -0.03  -0.01     0.02  -0.05  -0.07
   5   6     0.06   0.26   0.05     0.02   0.05   0.02    -0.06   0.13   0.04
   6   1     0.04   0.15  -0.02     0.01   0.03  -0.00    -0.01   0.14  -0.04
   7   1    -0.03   0.09   0.08    -0.00   0.02   0.02    -0.04   0.05   0.11
   8   7     0.10   0.00   0.07     0.03   0.01   0.02    -0.05   0.07  -0.03
   9   6    -0.02  -0.05   0.03    -0.01  -0.01   0.01    -0.14   0.03  -0.07
  10   1    -0.12   0.02  -0.07    -0.03   0.00  -0.01    -0.15   0.04  -0.10
  11   1     0.10   0.07   0.03     0.01   0.01   0.01     0.06   0.09   0.00
  12   1    -0.01  -0.15   0.06    -0.00  -0.03   0.01    -0.05  -0.12   0.03
  13   6     0.27  -0.06   0.14     0.05   0.00   0.02     0.08   0.03  -0.02
  14   1     0.11  -0.06  -0.08     0.02  -0.01  -0.02     0.03  -0.02  -0.04
  15   1    -0.03   0.04   0.08    -0.01   0.01   0.02    -0.00   0.03   0.01
  16   1     0.18  -0.03   0.13     0.04  -0.00   0.02     0.07   0.01   0.03
  17   6    -0.01  -0.19   0.01     0.01  -0.02   0.01    -0.06   0.02  -0.04
  18   1    -0.03  -0.10   0.02    -0.01  -0.02   0.00    -0.06  -0.03  -0.01
  19   1     0.01  -0.06  -0.06     0.01  -0.01  -0.01     0.02  -0.01  -0.04
  20   1    -0.01  -0.04   0.04     0.00   0.00   0.01    -0.02   0.04   0.01
  21   1    -0.12  -0.01   0.00    -0.02  -0.00  -0.00     0.03  -0.03  -0.13
  22   6     0.02  -0.01  -0.05    -0.00  -0.00  -0.01    -0.01   0.02   0.21
  23   8     0.05   0.00  -0.08     0.00  -0.00  -0.01    -0.03   0.02   0.37
  24   7     0.06  -0.04  -0.02     0.01  -0.00  -0.00    -0.19   0.25   0.07
  25   1    -0.05  -0.07  -0.02    -0.00  -0.01  -0.00    -0.05   0.15   0.06
  26   1    -0.08  -0.08   0.00    -0.01  -0.01   0.00    -0.00   0.11  -0.06
  27   7    -0.03  -0.01  -0.03     0.00   0.00  -0.00     0.09  -0.11   0.10
  28   1     0.05   0.03   0.00    -0.00  -0.00   0.00    -0.01  -0.05  -0.02
  29   1     0.03   0.03  -0.01    -0.00  -0.00  -0.00     0.02  -0.07   0.04
  30   6     0.01   0.03  -0.01    -0.16  -0.14  -0.01    -0.01  -0.00  -0.00
  31   8     0.06   0.05   0.01    -0.45  -0.39  -0.14    -0.01  -0.01  -0.01
  32   7    -0.01   0.06  -0.06    -0.07  -0.07   0.35    -0.01   0.00  -0.00
  33   1     0.00   0.01  -0.03    -0.05  -0.05   0.13    -0.00  -0.00  -0.00
  34   1    -0.01   0.01  -0.02     0.04   0.03   0.13    -0.00   0.00  -0.00
  35   7    -0.04  -0.01   0.03     0.12   0.13  -0.24    -0.02  -0.00   0.00
  36   1    -0.03  -0.02   0.00     0.13   0.06  -0.04    -0.01   0.01   0.00
  37   1    -0.01  -0.02   0.02     0.01  -0.00  -0.17    -0.00   0.00   0.00
  38   6     0.01  -0.03   0.01     0.02   0.06   0.00     0.01  -0.02   0.00
  39   8     0.06  -0.07   0.04    -0.11   0.16  -0.08     0.04  -0.04   0.02
  40   7     0.00  -0.02  -0.04     0.06   0.08   0.14     0.01  -0.01  -0.02
  41   1     0.00  -0.00  -0.02    -0.00   0.01   0.07     0.00   0.00  -0.01
  42   1    -0.00   0.01  -0.02     0.03  -0.03   0.07     0.00   0.01  -0.01
  43   7    -0.02   0.04   0.03     0.15  -0.09  -0.10    -0.01   0.04   0.00
  44   1    -0.02   0.02  -0.00     0.09  -0.04  -0.01    -0.01  -0.02   0.02
  45   1    -0.00   0.01   0.02     0.02  -0.02  -0.08     0.00  -0.02   0.03
  46   6    -0.01   0.00   0.00     0.08   0.06   0.00     0.02   0.01   0.01
  47   8     0.00   0.04   0.01     0.05  -0.04  -0.02     0.03   0.02   0.03
  48   7     0.01  -0.03  -0.01     0.01   0.16   0.02     0.04  -0.00  -0.01
  49   1     0.01  -0.01  -0.00    -0.03   0.04   0.00     0.02  -0.00   0.00
  50   1    -0.00  -0.02  -0.01     0.02   0.07   0.01     0.01  -0.01  -0.00
  51   7    -0.05   0.00  -0.00     0.18   0.04   0.05     0.01   0.01   0.00
  52   1    -0.01  -0.01   0.01     0.04   0.03  -0.02    -0.00   0.00  -0.00
  53   1    -0.01  -0.00   0.01     0.05   0.02  -0.03     0.00   0.00   0.00
                     28                     29                     30
                        a                      a                      a 
 Frequencies --   244.0193               262.0642               265.7994
 Red. masses --     3.0601                 2.5074                 4.5298
 Frc consts  --     0.0000                 0.0000                 0.0000
 IR Inten    --   242.8317                99.7261                 7.4089
 Raman Activ --     0.0000                 0.0000                 0.0000
 Depolar     --     0.0000                 0.0000                 0.0000
 Atom AN      X      Y      Z        X      Y      Z        X      Y      Z
   1   8     0.00   0.01   0.02     0.04   0.01   0.11    -0.18  -0.02  -0.28
   2   6     0.02   0.00  -0.00     0.05   0.00   0.00    -0.15   0.00   0.01
   3   1     0.02   0.01   0.00     0.03   0.02   0.00    -0.11  -0.04  -0.01
   4   1     0.01  -0.00  -0.01     0.02  -0.01  -0.03    -0.05   0.01   0.09
   5   6     0.01   0.00   0.01    -0.01  -0.05   0.00     0.06   0.12  -0.03
   6   1     0.00   0.00  -0.00    -0.01  -0.02   0.00     0.04   0.04  -0.00
   7   1     0.00   0.00   0.01     0.00  -0.01  -0.01     0.01   0.03  -0.00
   8   7     0.00   0.00   0.00    -0.02  -0.02   0.00     0.09   0.02   0.01
   9   6    -0.00  -0.01   0.01    -0.03  -0.01  -0.01     0.12   0.01   0.04
  10   1    -0.01   0.00  -0.01    -0.07   0.02  -0.06     0.25  -0.06   0.21
  11   1     0.01   0.00   0.00     0.05   0.05   0.01    -0.19  -0.18  -0.03
  12   1    -0.00  -0.01   0.01    -0.01  -0.07   0.04     0.05   0.25  -0.13
  13   6    -0.00   0.01  -0.01    -0.05  -0.01  -0.03     0.19  -0.01   0.13
  14   1     0.00   0.00  -0.02    -0.00   0.00  -0.07     0.01  -0.01   0.24
  15   1    -0.02   0.00   0.00    -0.07   0.01   0.01     0.26  -0.04  -0.02
  16   1     0.01  -0.00   0.01     0.02  -0.01   0.03    -0.08   0.04  -0.10
  17   6     0.01   0.01   0.00     0.03   0.02   0.01    -0.06  -0.10   0.00
  18   1    -0.03  -0.03  -0.00    -0.04  -0.03  -0.00     0.17   0.12   0.01
  19   1     0.04  -0.01  -0.02     0.07  -0.01  -0.01    -0.26   0.05   0.07
  20   1    -0.00   0.05   0.02     0.00   0.07   0.02     0.01  -0.27  -0.08
  21   1    -0.00  -0.00   0.01    -0.00  -0.01   0.03    -0.00   0.03  -0.08
  22   6    -0.00  -0.00  -0.01     0.00   0.00  -0.03    -0.01  -0.01   0.05
  23   8     0.00   0.00  -0.01     0.01   0.01  -0.04    -0.03  -0.02   0.08
  24   7     0.01  -0.00  -0.00     0.02  -0.03  -0.01    -0.03   0.07   0.01
  25   1     0.00  -0.00  -0.00     0.01  -0.02  -0.01    -0.03   0.02   0.01
  26   1    -0.00  -0.00   0.00     0.00  -0.01   0.01    -0.02   0.01  -0.02
  27   7     0.00   0.00  -0.00    -0.01   0.02  -0.01     0.04  -0.02   0.02
  28   1    -0.01  -0.00   0.00    -0.00   0.00   0.00    -0.01  -0.02  -0.00
  29   1    -0.00  -0.00  -0.00    -0.00   0.01  -0.00    -0.01  -0.02   0.01
  30   6    -0.01   0.02  -0.02    -0.00  -0.01   0.00     0.00   0.00   0.00
  31   8     0.02  -0.07  -0.03    -0.00  -0.04  -0.00     0.01  -0.02  -0.00
  32   7    -0.02   0.00  -0.03    -0.00  -0.01   0.01     0.00   0.00  -0.00
  33   1     0.00  -0.07  -0.03     0.00  -0.00   0.00     0.00  -0.00  -0.00
  34   1     0.01  -0.17  -0.08    -0.00  -0.00   0.00     0.00  -0.01  -0.01
  35   7    -0.02  -0.36  -0.06    -0.02  -0.01   0.02    -0.00  -0.04   0.00
  36   1    -0.04   0.70   0.14    -0.01   0.03   0.01    -0.01   0.07   0.02
  37   1    -0.05   0.49   0.13    -0.00   0.01   0.01    -0.00   0.04   0.01
  38   6     0.01   0.01   0.03     0.01  -0.00   0.01    -0.01   0.00   0.00
  39   8    -0.02   0.01   0.03     0.04   0.05  -0.03    -0.02   0.01  -0.01
  40   7     0.01   0.03   0.03    -0.01  -0.01   0.02    -0.01  -0.00   0.01
  41   1     0.00  -0.02   0.02     0.01   0.10  -0.06     0.00   0.02  -0.02
  42   1     0.00  -0.03   0.04     0.02   0.26  -0.16     0.00   0.08  -0.05
  43   7     0.02  -0.00   0.02    -0.03   0.22  -0.16     0.00   0.04  -0.06
  44   1     0.01   0.03  -0.02    -0.03  -0.58   0.42     0.00  -0.17   0.12
  45   1     0.00   0.02  -0.02     0.02  -0.38   0.26     0.01  -0.12   0.06
  46   6    -0.00   0.03  -0.03    -0.00   0.01  -0.00    -0.00  -0.00  -0.01
  47   8    -0.00   0.04  -0.02     0.00   0.01   0.00    -0.01  -0.00  -0.02
  48   7    -0.00  -0.01   0.07     0.00  -0.01   0.01    -0.01   0.00   0.02
  49   1     0.00   0.02  -0.05     0.00   0.00  -0.01    -0.01   0.01  -0.01
  50   1    -0.00   0.03  -0.11    -0.00   0.00  -0.02    -0.00   0.01  -0.02
  51   7    -0.01   0.01   0.01    -0.01   0.00  -0.00    -0.00  -0.00  -0.00
  52   1    -0.01   0.01  -0.02    -0.00  -0.00   0.00     0.00  -0.00   0.01
  53   1    -0.00   0.01  -0.04    -0.00  -0.00   0.00    -0.00   0.00  -0.01
                     31                     32                     33
                        a                      a                      a 
 Frequencies --   292.8444               297.4168               313.7125
 Red. masses --     7.1212                 2.8135                 6.3470
 Frc consts  --     0.0000                 0.0000                 0.0000
 IR Inten    --     1.4394               167.0130                 6.7515
 Raman Activ --     0.0000                 0.0000                 0.0000
 Depolar     --     0.0000                 0.0000                 0.0000
 Atom AN      X      Y      Z        X      Y      Z        X      Y      Z
   1   8    -0.02   0.09  -0.04     0.00  -0.00   0.01     0.04  -0.17   0.33
   2   6     0.35   0.04  -0.14     0.04  -0.00  -0.01     0.09  -0.15  -0.04
   3   1     0.25   0.07   0.01     0.02   0.01   0.00     0.09   0.01  -0.00
   4   1     0.13  -0.07  -0.20     0.01  -0.01  -0.01     0.04  -0.08  -0.09
   5   6    -0.06   0.05   0.09     0.01   0.01   0.01    -0.02  -0.09  -0.02
   6   1    -0.03   0.06  -0.01     0.00   0.01  -0.00    -0.04  -0.04  -0.01
   7   1    -0.06   0.02   0.04     0.00   0.00   0.01     0.04  -0.04  -0.00
   8   7    -0.08  -0.06   0.10     0.01   0.00   0.01    -0.05   0.10  -0.04
   9   6    -0.31  -0.11  -0.03    -0.02  -0.00  -0.00    -0.18   0.15  -0.17
  10   1    -0.05  -0.04   0.08     0.02  -0.01   0.03    -0.18   0.08  -0.18
  11   1    -0.19  -0.10  -0.02    -0.04  -0.02  -0.00     0.05   0.18  -0.00
  12   1    -0.07   0.02  -0.12    -0.00   0.03  -0.03    -0.05  -0.11  -0.00
  13   6    -0.32   0.01   0.06    -0.00   0.00   0.00     0.24   0.03   0.03
  14   1    -0.11   0.07   0.08     0.00   0.01  -0.02     0.05  -0.07   0.12
  15   1    -0.05  -0.03  -0.00    -0.02   0.00   0.01     0.20   0.01  -0.02
  16   1    -0.17  -0.01  -0.03     0.01  -0.00   0.01     0.03   0.06  -0.06
  17   6     0.37  -0.04  -0.03     0.01  -0.01   0.01    -0.21   0.14   0.03
  18   1     0.30   0.08   0.05     0.00  -0.00   0.00     0.16   0.26  -0.01
  19   1    -0.00   0.03   0.08     0.00  -0.00   0.00    -0.35   0.13   0.14
  20   1     0.13  -0.12  -0.18     0.00  -0.00   0.00    -0.03  -0.24  -0.08
  21   1    -0.05  -0.01  -0.01    -0.01  -0.00   0.00    -0.01  -0.08   0.10
  22   6     0.01   0.00  -0.00     0.00   0.00  -0.00    -0.00   0.02  -0.04
  23   8     0.02   0.01   0.00     0.00   0.00  -0.00    -0.00   0.02  -0.06
  24   7    -0.01  -0.01  -0.00    -0.00  -0.00  -0.00     0.02  -0.06  -0.00
  25   1     0.01   0.00  -0.00     0.00   0.00  -0.00     0.03  -0.03  -0.01
  26   1     0.01   0.01   0.00     0.01   0.00   0.00     0.03  -0.00   0.03
  27   7    -0.00  -0.02  -0.00    -0.00  -0.00  -0.00    -0.04   0.03  -0.02
  28   1     0.01   0.00  -0.00     0.00   0.00   0.00     0.01   0.02  -0.00
  29   1     0.02   0.01  -0.00     0.00   0.00  -0.00     0.01   0.02  -0.01
  30   6     0.00   0.00  -0.00     0.00  -0.00   0.00    -0.01  -0.00   0.01
  31   8     0.00  -0.00  -0.00     0.01  -0.02   0.00    -0.02  -0.02   0.00
  32   7     0.00   0.00  -0.00    -0.00   0.01   0.00    -0.00  -0.03   0.00
  33   1    -0.00   0.01   0.00     0.00  -0.01  -0.01     0.00   0.02   0.00
  34   1    -0.00   0.00   0.00     0.00  -0.05  -0.02    -0.00   0.01   0.01
  35   7    -0.00   0.00   0.00    -0.00  -0.04   0.01     0.00  -0.02  -0.00
  36   1    -0.00   0.00   0.00    -0.01   0.10   0.03     0.00   0.03   0.01
  37   1    -0.00  -0.00   0.00    -0.01   0.06   0.02    -0.00   0.01  -0.00
  38   6     0.00   0.00   0.00    -0.00   0.01   0.00     0.01  -0.02  -0.00
  39   8     0.00   0.01  -0.00    -0.01   0.01   0.00     0.02  -0.02  -0.00
  40   7     0.00   0.00  -0.00    -0.00   0.00   0.01     0.01   0.00  -0.02
  41   1     0.00  -0.00  -0.00     0.00   0.00  -0.00    -0.00  -0.00   0.01
  42   1    -0.00  -0.00   0.00     0.00   0.01  -0.01     0.00  -0.03   0.02
  43   7     0.00   0.00   0.00     0.00   0.00  -0.01    -0.01   0.02   0.00
  44   1    -0.00   0.01  -0.00     0.00  -0.02   0.01    -0.01   0.01  -0.00
  45   1     0.00   0.01  -0.00     0.00  -0.01   0.00    -0.00   0.01   0.01
  46   6     0.00   0.00   0.01    -0.02  -0.00   0.04     0.01   0.02   0.00
  47   8     0.01   0.00   0.04    -0.02  -0.00  -0.00     0.01   0.02   0.00
  48   7     0.00  -0.00   0.02     0.01   0.09  -0.35     0.04  -0.00  -0.01
  49   1     0.00   0.01  -0.02     0.01  -0.14   0.39     0.02  -0.00   0.00
  50   1    -0.00   0.01  -0.05     0.01  -0.18   0.77     0.01  -0.01   0.01
  51   7    -0.00   0.00   0.00     0.00  -0.01   0.02     0.00   0.02   0.00
  52   1    -0.00  -0.00   0.00    -0.05   0.07  -0.17    -0.00   0.00   0.00
  53   1    -0.00   0.00   0.00    -0.01   0.02  -0.06     0.00   0.00   0.00
                     34                     35                     36
                        a                      a                      a 
 Frequencies --   333.9155               338.3798               354.3654
 Red. masses --     3.6511                 2.1607                 4.6046
 Frc consts  --     0.0000                 0.0000                 0.0000
 IR Inten    --   455.1515                31.9209                 6.9609
 Raman Activ --     0.0000                 0.0000                 0.0000
 Depolar     --     0.0000                 0.0000                 0.0000
 Atom AN      X      Y      Z        X      Y      Z        X      Y      Z
   1   8    -0.01   0.02  -0.01     0.06  -0.04   0.02    -0.03   0.13  -0.25
   2   6     0.02   0.02   0.02     0.00  -0.05  -0.10    -0.15   0.12   0.06
   3   1     0.01   0.00   0.01    -0.01   0.00  -0.04    -0.13  -0.02  -0.00
   4   1     0.01  -0.00   0.00    -0.00  -0.00  -0.04    -0.06   0.08   0.12
   5   6     0.01  -0.01   0.02    -0.03  -0.09  -0.11     0.05  -0.06  -0.06
   6   1     0.01  -0.00   0.01    -0.04  -0.06  -0.03     0.03  -0.07   0.02
   7   1    -0.00  -0.00   0.00     0.03  -0.04  -0.06     0.00  -0.02  -0.08
   8   7     0.00  -0.02  -0.01    -0.05   0.02   0.03     0.07  -0.13   0.01
   9   6     0.01  -0.02  -0.00    -0.09   0.06  -0.02     0.22  -0.06   0.06
  10   1    -0.07   0.01  -0.06     0.14  -0.03   0.14    -0.12   0.04  -0.19
  11   1     0.08   0.05   0.01    -0.22  -0.11  -0.03     0.30   0.16   0.06
  12   1    -0.01  -0.08   0.05    -0.00   0.20  -0.15     0.04  -0.23   0.19
  13   6    -0.05  -0.00  -0.02     0.10  -0.02   0.08    -0.21  -0.06   0.02
  14   1    -0.04   0.02   0.09     0.12  -0.09  -0.40    -0.04   0.04  -0.13
  15   1     0.08  -0.03  -0.04    -0.37   0.14   0.16    -0.22   0.01   0.05
  16   1    -0.09   0.02  -0.08     0.37  -0.09   0.34     0.00  -0.08   0.10
  17   6     0.01  -0.01  -0.00    -0.03   0.10   0.05     0.13   0.02   0.07
  18   1     0.01  -0.00  -0.00     0.08   0.11   0.01     0.28   0.22   0.02
  19   1     0.01  -0.00  -0.00    -0.10   0.06   0.09    -0.21   0.09   0.17
  20   1     0.00  -0.00  -0.00     0.00  -0.06  -0.04     0.07  -0.23  -0.12
  21   1     0.06   0.02   0.01     0.03  -0.02   0.02     0.01   0.07  -0.07
  22   6    -0.12  -0.07  -0.00    -0.02  -0.02   0.01     0.02  -0.01   0.03
  23   8    -0.03  -0.01  -0.01     0.00   0.01  -0.00     0.01  -0.02   0.03
  24   7     0.21   0.17   0.02     0.04   0.05   0.01    -0.04   0.03  -0.01
  25   1    -0.16  -0.12  -0.01    -0.04  -0.02   0.00    -0.01   0.03   0.01
  26   1    -0.37  -0.28   0.00    -0.09  -0.06  -0.00     0.02   0.03  -0.02
  27   7     0.28   0.17   0.01     0.06   0.05   0.01    -0.01  -0.03   0.02
  28   1    -0.52  -0.33  -0.01    -0.14  -0.08   0.00     0.04   0.02   0.01
  29   1    -0.25  -0.17  -0.01    -0.06  -0.04  -0.00     0.01   0.01   0.00
  30   6     0.00   0.00   0.00     0.00   0.00   0.00    -0.01   0.00   0.01
  31   8     0.00   0.00   0.00     0.00   0.00   0.00    -0.02  -0.01   0.00
  32   7    -0.00   0.00  -0.00     0.00  -0.01  -0.01    -0.00  -0.02  -0.00
  33   1     0.00   0.00  -0.00     0.00   0.01   0.00     0.00   0.03   0.00
  34   1    -0.00   0.00  -0.00    -0.00   0.02   0.01    -0.00   0.02   0.01
  35   7    -0.00   0.00   0.00     0.00  -0.00   0.00     0.01  -0.02  -0.01
  36   1    -0.00  -0.01  -0.00    -0.00  -0.01  -0.00     0.01   0.04   0.01
  37   1    -0.00  -0.00   0.00     0.00  -0.00   0.00    -0.00   0.01  -0.01
  38   6     0.00  -0.00  -0.00    -0.00   0.00  -0.00     0.01  -0.02   0.00
  39   8     0.01  -0.00  -0.00    -0.01   0.00   0.00     0.01  -0.01  -0.00
  40   7     0.00  -0.00  -0.00    -0.00  -0.00  -0.00     0.01   0.02  -0.02
  41   1    -0.00   0.00   0.00     0.00  -0.01  -0.00    -0.00  -0.01   0.01
  42   1     0.00  -0.01   0.00    -0.00  -0.00   0.00     0.00  -0.05   0.03
  43   7    -0.00   0.00   0.01     0.00  -0.01  -0.00    -0.01   0.02  -0.00
  44   1    -0.00   0.01  -0.01     0.00   0.00  -0.00    -0.01  -0.01   0.01
  45   1    -0.00   0.01   0.00    -0.00  -0.00  -0.00     0.00   0.00   0.01
  46   6    -0.00   0.01  -0.00     0.01  -0.01   0.01    -0.00   0.01  -0.00
  47   8    -0.00   0.01  -0.01     0.01  -0.01   0.03    -0.00   0.02  -0.01
  48   7     0.01  -0.00  -0.01    -0.00   0.00   0.01    -0.00   0.01  -0.01
  49   1     0.00  -0.00   0.00     0.00   0.00  -0.01    -0.01  -0.00   0.01
  50   1     0.00  -0.01   0.02    -0.00   0.01  -0.05     0.00  -0.00   0.04
  51   7    -0.01   0.00   0.00     0.00  -0.00  -0.00    -0.03   0.01   0.00
  52   1    -0.00   0.00  -0.01     0.00  -0.01   0.01    -0.00  -0.00   0.01
  53   1    -0.00   0.00  -0.00    -0.00   0.00   0.00    -0.01  -0.00  -0.00
                     37                     38                     39
                        a                      a                      a 
 Frequencies --   378.2706               391.3837               420.5855
 Red. masses --     7.5148                 3.4407                 3.1368
 Frc consts  --     0.0000                 0.0000                 0.0000
 IR Inten    --     2.3761                97.5616               262.6479
 Raman Activ --     0.0000                 0.0000                 0.0000
 Depolar     --     0.0000                 0.0000                 0.0000
 Atom AN      X      Y      Z        X      Y      Z        X      Y      Z
   1   8    -0.09   0.04  -0.11    -0.01   0.00   0.00     0.02  -0.03   0.03
   2   6    -0.16   0.05  -0.12     0.02  -0.00   0.01    -0.02  -0.02  -0.01
   3   1    -0.14   0.02  -0.09     0.01  -0.00   0.01    -0.01  -0.00  -0.00
   4   1    -0.06   0.04   0.06     0.01  -0.00  -0.00    -0.01  -0.00   0.00
   5   6     0.07  -0.18  -0.26    -0.00   0.02   0.02    -0.00   0.01  -0.01
   6   1    -0.04  -0.17  -0.04     0.00   0.01   0.00    -0.00   0.01  -0.01
   7   1     0.09  -0.07  -0.17    -0.01   0.01   0.01     0.00   0.00   0.00
   8   7     0.05   0.00   0.01     0.00  -0.01   0.01     0.00   0.05  -0.03
   9   6    -0.25  -0.18  -0.06     0.00  -0.00  -0.00     0.00  -0.07   0.05
  10   1    -0.17  -0.02  -0.01     0.03  -0.01   0.00    -0.03  -0.01   0.04
  11   1    -0.08  -0.03  -0.01    -0.03  -0.02  -0.00     0.03  -0.04   0.00
  12   1    -0.06  -0.16  -0.07     0.00   0.03  -0.02    -0.00  -0.04   0.03
  13   6     0.17  -0.02   0.37     0.00  -0.01   0.00    -0.01   0.06   0.04
  14   1     0.03  -0.05   0.23    -0.00  -0.00   0.01    -0.00   0.02   0.02
  15   1     0.18   0.06   0.11     0.01  -0.01  -0.00    -0.00   0.03   0.02
  16   1    -0.03  -0.04   0.08    -0.01   0.00  -0.01    -0.01   0.00   0.02
  17   6     0.22   0.28   0.10    -0.01  -0.00   0.01     0.01  -0.01  -0.07
  18   1    -0.03   0.04  -0.00    -0.04  -0.03   0.00     0.01  -0.02  -0.01
  19   1     0.22   0.04   0.07     0.03  -0.01  -0.02    -0.00  -0.00  -0.05
  20   1     0.05   0.24   0.03    -0.01   0.03   0.02     0.00  -0.01  -0.02
  21   1     0.01   0.01  -0.02    -0.00   0.00  -0.00    -0.00  -0.01   0.01
  22   6     0.00  -0.00   0.01    -0.00   0.00  -0.00    -0.00   0.00  -0.00
  23   8    -0.00  -0.00   0.00     0.00   0.00  -0.00     0.00   0.00  -0.00
  24   7    -0.02   0.01  -0.00     0.00  -0.00  -0.00     0.00  -0.00   0.00
  25   1    -0.01   0.01   0.00     0.00  -0.00  -0.00    -0.00  -0.00  -0.00
  26   1     0.01   0.01  -0.01    -0.00  -0.00   0.00     0.00   0.00   0.00
  27   7    -0.01   0.00   0.01    -0.00   0.00  -0.00    -0.00   0.00  -0.00
  28   1     0.01   0.01   0.01     0.00   0.00   0.00    -0.00  -0.00  -0.00
  29   1    -0.00   0.00   0.00    -0.00   0.00  -0.00     0.00   0.00  -0.00
  30   6     0.00  -0.00  -0.00     0.00   0.09   0.05    -0.02   0.09   0.06
  31   8     0.00   0.00  -0.00    -0.02   0.06   0.03    -0.04   0.04   0.04
  32   7    -0.00  -0.01  -0.00     0.01  -0.13  -0.12     0.02  -0.19  -0.11
  33   1    -0.00   0.00   0.00    -0.02   0.07   0.01    -0.03   0.01   0.02
  34   1     0.00  -0.01  -0.01    -0.02   0.46   0.19    -0.01   0.65   0.29
  35   7    -0.00   0.00   0.00     0.03  -0.10  -0.02     0.04  -0.15  -0.03
  36   1    -0.00  -0.00  -0.00     0.02   0.01   0.00     0.03   0.12   0.03
  37   1    -0.00   0.00   0.00    -0.00   0.05  -0.00    -0.00   0.07  -0.00
  38   6     0.00  -0.01  -0.00    -0.01  -0.13   0.06    -0.00   0.05  -0.04
  39   8     0.00   0.00  -0.01    -0.01  -0.06   0.02     0.01   0.03  -0.02
  40   7     0.01   0.01   0.01     0.02   0.20  -0.14    -0.03  -0.11   0.06
  41   1    -0.00   0.01   0.01    -0.02  -0.08   0.06     0.00   0.01  -0.02
  42   1     0.01  -0.01   0.01    -0.04  -0.58   0.37     0.02   0.34  -0.23
  43   7    -0.01   0.02   0.01    -0.00   0.17  -0.12    -0.00  -0.10   0.04
  44   1    -0.01   0.01  -0.00    -0.01  -0.16   0.12     0.02   0.10  -0.08
  45   1     0.00   0.01   0.01     0.01  -0.06   0.05    -0.01   0.02  -0.04
  46   6    -0.00   0.00  -0.00    -0.01   0.01  -0.02     0.03  -0.01   0.02
  47   8    -0.00  -0.00   0.00    -0.00   0.01  -0.02     0.02  -0.02   0.02
  48   7     0.00  -0.01  -0.00    -0.00  -0.01   0.02     0.01   0.04  -0.05
  49   1     0.00  -0.00   0.00     0.00   0.00  -0.00    -0.01  -0.01   0.04
  50   1    -0.00  -0.01   0.01    -0.00  -0.01   0.01     0.01   0.01   0.05
  51   7     0.01  -0.00   0.00     0.02  -0.02   0.04    -0.06   0.04  -0.08
  52   1    -0.00   0.01  -0.02    -0.04   0.04  -0.12     0.09  -0.09   0.28
  53   1     0.00  -0.00   0.00    -0.00   0.01  -0.02     0.00  -0.02  -0.00
                     40                     41                     42
                        a                      a                      a 
 Frequencies --   426.2854               435.4947               458.6790
 Red. masses --     2.9399                 8.5275                 1.9806
 Frc consts  --     0.0000                 0.0000                 0.0000
 IR Inten    --   354.8174                27.4070                 5.5370
 Raman Activ --     0.0000                 0.0000                 0.0000
 Depolar     --     0.0000                 0.0000                 0.0000
 Atom AN      X      Y      Z        X      Y      Z        X      Y      Z
   1   8    -0.01   0.01  -0.01     0.10  -0.13   0.19    -0.00   0.00  -0.03
   2   6     0.00   0.01  -0.00    -0.09  -0.10  -0.03    -0.00  -0.00  -0.01
   3   1     0.01   0.00   0.00    -0.04  -0.03  -0.02    -0.00  -0.00  -0.00
   4   1     0.00   0.00  -0.01    -0.03  -0.01   0.01    -0.00   0.00  -0.00
   5   6    -0.03  -0.01   0.01     0.04   0.12  -0.06    -0.02   0.00  -0.00
   6   1    -0.01  -0.00   0.00     0.03   0.08  -0.03    -0.00   0.01  -0.00
   7   1    -0.01  -0.00  -0.00     0.02   0.03   0.05    -0.01   0.00   0.00
   8   7    -0.02  -0.03   0.02     0.04   0.25  -0.21    -0.01  -0.02   0.01
   9   6    -0.01   0.04  -0.02     0.05  -0.34   0.20     0.01   0.02  -0.00
  10   1     0.02   0.01  -0.02    -0.09  -0.07   0.19     0.01   0.00  -0.01
  11   1    -0.02   0.02   0.00     0.11  -0.23  -0.02     0.00   0.01   0.00
  12   1     0.00   0.03  -0.02     0.00  -0.17   0.11     0.00   0.01   0.00
  13   6     0.02  -0.05  -0.01    -0.08   0.31   0.18     0.00  -0.02  -0.00
  14   1     0.00  -0.02   0.01    -0.02   0.10   0.04     0.00  -0.01  -0.00
  15   1     0.02  -0.02  -0.01    -0.06   0.18   0.10     0.00  -0.01  -0.00
  16   1     0.00   0.00  -0.02    -0.03  -0.02   0.13     0.01  -0.00  -0.00
  17   6     0.01   0.02   0.03    -0.03  -0.04  -0.34     0.02   0.01   0.01
  18   1    -0.01  -0.00   0.00     0.05  -0.03  -0.05     0.01   0.00   0.00
  19   1     0.03  -0.00   0.02    -0.08   0.01  -0.15     0.01   0.00   0.01
  20   1     0.00   0.03   0.01    -0.00  -0.10  -0.11     0.01   0.01  -0.00
  21   1     0.00   0.00  -0.00     0.01  -0.05   0.05     0.05   0.00   0.01
  22   6    -0.00   0.00  -0.00    -0.02   0.04  -0.02    -0.08   0.07   0.01
  23   8    -0.00   0.00   0.00    -0.02   0.04   0.01    -0.08   0.08   0.03
  24   7     0.00  -0.00   0.00     0.03  -0.04   0.04    -0.05  -0.10   0.10
  25   1     0.00  -0.00  -0.00     0.03  -0.04  -0.01     0.51   0.21  -0.01
  26   1    -0.00  -0.00   0.00     0.01  -0.02   0.05    -0.35  -0.29   0.13
  27   7     0.00   0.00  -0.00     0.01  -0.01  -0.05     0.13   0.02  -0.10
  28   1    -0.00  -0.00  -0.00    -0.01  -0.01  -0.04     0.36   0.21  -0.12
  29   1    -0.00  -0.00  -0.00     0.02  -0.02  -0.00    -0.30  -0.33   0.00
  30   6    -0.01   0.01  -0.03     0.00  -0.01  -0.02     0.00  -0.00   0.00
  31   8    -0.00   0.02  -0.02     0.01   0.00  -0.02    -0.00   0.00   0.00
  32   7     0.01   0.01   0.05     0.01   0.04   0.03     0.00  -0.00  -0.00
  33   1     0.00   0.01   0.01     0.00  -0.02   0.00     0.00   0.00  -0.00
  34   1     0.02  -0.18  -0.07     0.01  -0.13  -0.05    -0.00   0.01   0.00
  35   7    -0.01   0.03  -0.01    -0.02   0.03   0.00     0.00  -0.00   0.00
  36   1    -0.00   0.10   0.01    -0.02  -0.01  -0.01     0.00   0.00   0.00
  37   1     0.01  -0.10  -0.03    -0.00  -0.03   0.00     0.00   0.00   0.00
  38   6    -0.01  -0.03   0.04    -0.00  -0.02   0.01    -0.00   0.00   0.00
  39   8    -0.00  -0.00   0.02    -0.00  -0.01   0.01     0.00   0.00   0.00
  40   7    -0.01   0.06  -0.05     0.01   0.04  -0.02    -0.01  -0.01  -0.00
  41   1    -0.00  -0.00  -0.00    -0.00   0.01   0.00     0.00  -0.00  -0.00
  42   1    -0.02  -0.22   0.14    -0.01  -0.11   0.08    -0.00   0.01  -0.01
  43   7     0.02   0.05  -0.05     0.00   0.03  -0.02     0.00  -0.00  -0.00
  44   1     0.02  -0.06   0.04    -0.00  -0.03   0.02     0.01   0.01  -0.01
  45   1     0.00  -0.03   0.00     0.00  -0.01   0.01    -0.00  -0.01  -0.00
  46   6     0.05  -0.04   0.07    -0.01   0.00   0.00     0.00  -0.00  -0.00
  47   8     0.03  -0.08   0.05    -0.01   0.00   0.00     0.01   0.00  -0.00
  48   7     0.02   0.07  -0.14    -0.00  -0.01  -0.01    -0.00   0.00   0.00
  49   1    -0.01  -0.02   0.09     0.00  -0.00  -0.00    -0.01   0.00  -0.01
  50   1     0.02   0.02   0.08    -0.00  -0.01   0.01     0.00   0.01   0.01
  51   7    -0.15   0.10  -0.21    -0.01   0.01  -0.01    -0.00  -0.01   0.00
  52   1     0.24  -0.25   0.76     0.01  -0.00   0.03    -0.00  -0.00  -0.01
  53   1     0.01  -0.05  -0.02     0.00  -0.00  -0.00    -0.00   0.00   0.00
                     43                     44                     45
                        a                      a                      a 
 Frequencies --   461.5803               463.2541               463.3519
 Red. masses --     8.4275                 7.9834                 8.0766
 Frc consts  --     0.0000                 0.0000                 0.0000
 IR Inten    --     0.7957                 9.4822                 2.3802
 Raman Activ --     0.0000                 0.0000                 0.0000
 Depolar     --     0.0000                 0.0000                 0.0000
 Atom AN      X      Y      Z        X      Y      Z        X      Y      Z
   1   8    -0.00   0.00  -0.00    -0.01   0.00   0.03     0.00  -0.00   0.02
   2   6     0.05   0.00   0.06     0.10   0.01   0.11    -0.08   0.00  -0.08
   3   1     0.01  -0.00   0.02     0.02   0.00   0.02    -0.02   0.01  -0.02
   4   1     0.02  -0.01   0.03     0.03  -0.02   0.05    -0.03   0.01  -0.04
   5   6     0.08   0.05   0.04     0.17   0.01   0.04    -0.11  -0.12  -0.08
   6   1     0.06   0.06   0.01     0.06  -0.00   0.02    -0.10  -0.14  -0.00
   7   1    -0.02   0.03   0.05     0.04   0.00   0.01     0.05  -0.06  -0.11
   8   7     0.09  -0.09  -0.09     0.14   0.01  -0.06    -0.14   0.17   0.15
   9   6     0.03  -0.07  -0.17    -0.05  -0.10  -0.13    -0.07   0.10   0.28
  10   1     0.01  -0.02  -0.05    -0.04  -0.02   0.01    -0.05   0.04   0.06
  11   1    -0.02  -0.01  -0.04    -0.06  -0.05  -0.04     0.05   0.03   0.07
  12   1     0.01  -0.02  -0.07    -0.00  -0.04  -0.09    -0.03  -0.01   0.12
  13   6    -0.10  -0.05   0.08    -0.11   0.08   0.04     0.16   0.10  -0.14
  14   1    -0.03   0.03   0.03    -0.03   0.08   0.01     0.05  -0.04  -0.05
  15   1    -0.05   0.02   0.04    -0.07   0.04   0.03     0.08  -0.03  -0.07
  16   1    -0.06  -0.07   0.05    -0.06  -0.04   0.03     0.09   0.12  -0.08
  17   6    -0.10   0.11   0.05    -0.17   0.01   0.01     0.17  -0.18  -0.07
  18   1    -0.07   0.08  -0.04    -0.10   0.02  -0.04     0.13  -0.12   0.08
  19   1    -0.03   0.03   0.06    -0.08   0.01  -0.01     0.04  -0.05  -0.10
  20   1    -0.04   0.04   0.06    -0.06  -0.02   0.08     0.06  -0.08  -0.11
  21   1    -0.01   0.01  -0.01    -0.01   0.02  -0.00     0.01  -0.01   0.01
  22   6    -0.01   0.01  -0.00     0.13  -0.20  -0.01     0.08  -0.13  -0.01
  23   8    -0.01   0.01   0.01     0.14  -0.22  -0.05     0.09  -0.14  -0.04
  24   7     0.01  -0.01   0.01    -0.12   0.12  -0.26    -0.08   0.08  -0.16
  25   1    -0.00  -0.02  -0.00     0.02   0.26   0.04    -0.01   0.16   0.02
  26   1     0.01   0.00   0.02    -0.14  -0.04  -0.25    -0.08  -0.01  -0.16
  27   7     0.00  -0.01  -0.02    -0.06   0.16   0.26    -0.04   0.10   0.17
  28   1    -0.00  -0.01  -0.01     0.08   0.10   0.24     0.04   0.05   0.16
  29   1     0.01  -0.00  -0.00    -0.23   0.10  -0.01    -0.13   0.07  -0.01
  30   6     0.06   0.05  -0.15    -0.02  -0.00   0.02     0.04   0.02  -0.08
  31   8    -0.03   0.05  -0.18     0.01  -0.01   0.03    -0.02   0.03  -0.10
  32   7     0.17  -0.06   0.16    -0.03  -0.00  -0.01     0.09  -0.01   0.08
  33   1    -0.02  -0.04   0.12    -0.00  -0.00  -0.01    -0.01  -0.03   0.06
  34   1     0.15   0.02   0.09    -0.01  -0.01  -0.01     0.08   0.01   0.04
  35   7    -0.20  -0.03   0.10     0.02   0.01  -0.02    -0.10  -0.02   0.05
  36   1    -0.20  -0.04  -0.01     0.03   0.01   0.00    -0.11  -0.03  -0.01
  37   1    -0.01  -0.01   0.19     0.00  -0.01  -0.04    -0.01   0.01   0.11
  38   6    -0.07   0.11   0.16     0.02  -0.04  -0.05    -0.04   0.05   0.07
  39   8     0.09   0.13   0.20    -0.03  -0.04  -0.06     0.05   0.06   0.09
  40   7    -0.23  -0.10  -0.16     0.07   0.03   0.05    -0.11  -0.04  -0.07
  41   1     0.01  -0.06  -0.13    -0.00   0.02   0.04     0.00  -0.01  -0.06
  42   1    -0.18  -0.04  -0.06     0.06   0.02   0.02    -0.08  -0.06   0.00
  43   7     0.22  -0.07  -0.12    -0.07   0.02   0.04     0.09  -0.02  -0.06
  44   1     0.26   0.05  -0.05    -0.08  -0.02   0.02     0.12   0.03  -0.03
  45   1    -0.01  -0.22  -0.15     0.00   0.09   0.04    -0.01  -0.13  -0.05
  46   6    -0.06   0.04   0.01    -0.07   0.06   0.02     0.03  -0.03  -0.01
  47   8    -0.09   0.00   0.00    -0.11  -0.02   0.00     0.06   0.02  -0.00
  48   7     0.02  -0.08  -0.02     0.04  -0.09  -0.04    -0.03   0.04   0.02
  49   1     0.09  -0.03   0.03     0.12  -0.05   0.07    -0.07   0.02  -0.03
  50   1    -0.02  -0.08  -0.05    -0.03  -0.10  -0.08     0.01   0.05   0.04
  51   7     0.09   0.06   0.01     0.10   0.09   0.00    -0.05  -0.05   0.00
  52   1     0.04   0.06  -0.00     0.06   0.05   0.06    -0.03  -0.02  -0.04
  53   1     0.05  -0.01  -0.02     0.06  -0.01  -0.02    -0.03   0.01   0.00
                     46                     47                     48
                        a                      a                      a 
 Frequencies --   469.2887               473.2685               479.6680
 Red. masses --     7.2325                 1.9598                 3.6226
 Frc consts  --     0.0000                 0.0000                 0.0000
 IR Inten    --    29.3843                10.6773                 5.7949
 Raman Activ --     0.0000                 0.0000                 0.0000
 Depolar     --     0.0000                 0.0000                 0.0000
 Atom AN      X      Y      Z        X      Y      Z        X      Y      Z
   1   8     0.02  -0.02   0.09    -0.00   0.00  -0.01     0.02  -0.02   0.06
   2   6    -0.01  -0.02  -0.00     0.01   0.00   0.01    -0.06  -0.02  -0.05
   3   1     0.04   0.00   0.02    -0.00  -0.00   0.00     0.02   0.00   0.00
   4   1     0.00  -0.01  -0.04     0.00  -0.00   0.01    -0.02   0.00  -0.05
   5   6    -0.09   0.11   0.06     0.02   0.00   0.00    -0.14   0.05   0.01
   6   1     0.04   0.14  -0.01     0.01  -0.00   0.00    -0.01   0.07  -0.01
   7   1    -0.09   0.05   0.12     0.01  -0.00  -0.00    -0.07   0.02   0.06
   8   7    -0.04  -0.12  -0.16     0.02  -0.00  -0.00    -0.09  -0.04  -0.06
   9   6     0.12  -0.06  -0.12    -0.01  -0.01  -0.02     0.10   0.01   0.03
  10   1     0.07  -0.03  -0.03    -0.01  -0.00  -0.01     0.06  -0.01  -0.00
  11   1     0.05  -0.03  -0.04    -0.00   0.00  -0.00     0.07  -0.00   0.00
  12   1     0.03   0.03   0.00    -0.00  -0.01  -0.01     0.02   0.03   0.06
  13   6    -0.04  -0.12   0.14    -0.01   0.01   0.00     0.04  -0.08   0.06
  14   1    -0.02  -0.04   0.08    -0.00   0.01  -0.00     0.01  -0.06   0.04
  15   1     0.01   0.04   0.07    -0.01   0.00   0.00     0.05   0.01   0.02
  16   1    -0.03  -0.09   0.07    -0.01  -0.00   0.00     0.01  -0.02   0.02
  17   6    -0.03   0.18  -0.05    -0.02   0.00   0.01     0.08   0.07  -0.06
  18   1    -0.03   0.10  -0.06    -0.00   0.01  -0.00     0.04   0.03  -0.01
  19   1     0.02   0.05   0.07    -0.02   0.00   0.01     0.05   0.01   0.02
  20   1    -0.01   0.09  -0.00    -0.01  -0.01   0.01     0.02   0.05  -0.05
  21   1    -0.01  -0.01   0.02    -0.00   0.00  -0.00    -0.00  -0.01   0.02
  22   6     0.05  -0.08  -0.02    -0.00   0.00   0.00     0.02  -0.02  -0.01
  23   8     0.06  -0.09  -0.02    -0.00   0.00   0.00     0.02  -0.03  -0.00
  24   7    -0.04   0.04  -0.11     0.00  -0.00   0.01    -0.01   0.01  -0.04
  25   1    -0.00   0.09   0.01     0.00  -0.00  -0.00     0.00   0.02   0.00
  26   1    -0.05  -0.01  -0.10     0.00  -0.00   0.00    -0.01  -0.00  -0.03
  27   7    -0.03   0.07   0.10     0.00  -0.00  -0.01    -0.01   0.03   0.03
  28   1     0.01   0.03   0.11     0.00   0.00  -0.01    -0.00   0.01   0.03
  29   1    -0.08   0.06  -0.01     0.00  -0.00   0.00    -0.02   0.02  -0.00
  30   6     0.00  -0.02   0.04     0.01  -0.08  -0.03    -0.04  -0.04   0.10
  31   8    -0.01  -0.01   0.05    -0.02  -0.10  -0.04     0.02  -0.04   0.13
  32   7    -0.03   0.03  -0.07     0.01   0.14   0.04    -0.12   0.03  -0.11
  33   1     0.02   0.04  -0.05     0.01  -0.06  -0.01     0.02   0.05  -0.08
  34   1    -0.05  -0.02  -0.04    -0.00   0.04   0.01    -0.11  -0.02  -0.06
  35   7     0.06   0.01  -0.01     0.02  -0.03  -0.02     0.12   0.02  -0.05
  36   1     0.05  -0.01   0.00    -0.07  -0.53  -0.13     0.13   0.01   0.01
[...]
  44   1    -0.00   0.01   0.01    -0.00   0.00   0.00     0.00  -0.00  -0.00
  45   1     0.01  -0.00  -0.00     0.00  -0.00  -0.00    -0.00   0.00   0.00
  46   6     0.00  -0.01  -0.00    -0.00   0.01   0.01    -0.00  -0.00  -0.00
  47   8    -0.00   0.00   0.00     0.01  -0.00  -0.00     0.00   0.00   0.00
  48   7     0.00   0.00  -0.00    -0.00  -0.00   0.00    -0.00  -0.00  -0.00
  49   1     0.00   0.00   0.00    -0.00  -0.01  -0.00    -0.00   0.00   0.00
  50   1     0.00  -0.00   0.00    -0.00   0.00   0.00     0.00  -0.00  -0.00
  51   7    -0.07  -0.05  -0.02     0.17   0.14   0.04    -0.00   0.00   0.00
  52   1    -0.04   0.01   0.02     0.12  -0.03  -0.04     0.00  -0.00  -0.00
  53   1     0.29   0.20   0.05    -0.73  -0.50  -0.12     0.00   0.00  -0.00
                    142                    143                    144
                        a                      a                      a 
 Frequencies --  3496.6712              3499.3927              3499.7759
 Red. masses --     1.4512                 1.4491                 1.4482
 Frc consts  --     0.0000                 0.0000                 0.0000
 IR Inten    --    18.9593                20.7257                23.8640
 Raman Activ --     0.0000                 0.0000                 0.0000
 Depolar     --     0.0000                 0.0000                 0.0000
 Atom AN      X      Y      Z        X      Y      Z        X      Y      Z
   1   8    -0.00   0.00   0.00     0.00  -0.00  -0.00    -0.00   0.00   0.00
   2   6     0.00  -0.00   0.00    -0.00   0.00   0.00     0.00  -0.00   0.00
   3   1     0.00   0.00   0.00     0.00   0.00  -0.00     0.00  -0.00  -0.00
   4   1    -0.00   0.00  -0.00     0.00  -0.00   0.00    -0.00   0.00  -0.00
   5   6     0.00   0.00  -0.00    -0.00  -0.00   0.00     0.00   0.00  -0.00
   6   1    -0.00  -0.00   0.00     0.00  -0.00  -0.00    -0.00  -0.00   0.00
   7   1     0.00   0.00   0.00    -0.00   0.00   0.00     0.00  -0.00   0.00
   8   7     0.00   0.00  -0.00     0.00   0.00   0.00     0.00  -0.00  -0.00
   9   6    -0.00  -0.00  -0.00    -0.00  -0.00   0.00     0.00   0.00   0.00
  10   1    -0.00   0.00  -0.00     0.00   0.00   0.00     0.00  -0.00   0.00
  11   1    -0.00   0.00  -0.00     0.00   0.00  -0.00    -0.00   0.00  -0.00
  12   1     0.00   0.00   0.00     0.00  -0.00   0.00    -0.00  -0.00  -0.00
  13   6    -0.00  -0.00  -0.00    -0.00  -0.00   0.00     0.00  -0.00   0.00
  14   1     0.00  -0.00   0.00     0.00  -0.00   0.00    -0.00   0.00  -0.00
  15   1    -0.00  -0.00  -0.00    -0.00   0.00  -0.00    -0.00   0.00  -0.00
  16   1    -0.00   0.00   0.00    -0.00  -0.00  -0.00     0.00  -0.00  -0.00
  17   6    -0.00  -0.00  -0.00    -0.00  -0.00   0.00     0.00   0.00  -0.00
  18   1    -0.00   0.00   0.00     0.00  -0.00  -0.00    -0.00   0.00   0.00
  19   1    -0.00   0.00   0.00     0.00   0.00   0.00     0.00  -0.00   0.00
  20   1     0.00   0.00  -0.00     0.00   0.00   0.00    -0.00  -0.00   0.00
  21   1     0.00  -0.00  -0.00    -0.00   0.00   0.00     0.00  -0.00  -0.00
  22   6     0.00  -0.00  -0.00    -0.00   0.00   0.00     0.00  -0.00  -0.00
  23   8    -0.00   0.00   0.00     0.00  -0.00  -0.00    -0.00   0.00   0.00
  24   7    -0.00   0.00   0.00     0.00  -0.00  -0.00    -0.00   0.00  -0.00
  25   1    -0.00   0.00  -0.00     0.00  -0.00   0.00     0.00  -0.00   0.00
  26   1     0.00  -0.00  -0.00    -0.00   0.00   0.00     0.00  -0.00  -0.00
  27   7     0.00  -0.00   0.00    -0.00   0.00  -0.00     0.00  -0.00   0.00
  28   1    -0.00   0.00   0.00     0.00  -0.00  -0.00    -0.00   0.00   0.00
  29   1     0.00  -0.00  -0.00    -0.00   0.00   0.00     0.00  -0.00  -0.00
  30   6     0.00   0.00   0.00     0.00  -0.00   0.00     0.00   0.00   0.00
  31   8    -0.00  -0.00  -0.00    -0.00  -0.00  -0.00     0.00   0.00  -0.00
  32   7    -0.00   0.00  -0.00    -0.00  -0.00   0.00    -0.00   0.01  -0.01
  33   1     0.00  -0.00   0.00     0.01  -0.00   0.01     0.01  -0.00   0.01
  34   1    -0.00  -0.00   0.00     0.00   0.00  -0.01    -0.01  -0.02   0.04
  35   7     0.00  -0.00   0.00    -0.00   0.00  -0.00     0.13  -0.01   0.13
  36   1     0.00   0.00  -0.02    -0.00  -0.00   0.00     0.17   0.14  -0.66
  37   1    -0.02  -0.00   0.01     0.00   0.00  -0.00    -0.66  -0.10   0.18
  38   6     0.00   0.00   0.00     0.00   0.00   0.00     0.00   0.00   0.00
  39   8    -0.00  -0.00  -0.00     0.00  -0.00  -0.00    -0.00   0.00  -0.00
  40   7    -0.00   0.00  -0.00    -0.00  -0.01  -0.01    -0.00   0.00   0.00
  41   1     0.00   0.00   0.00     0.01   0.00   0.01     0.01   0.00   0.01
  42   1     0.00  -0.00  -0.00    -0.01   0.02   0.03     0.00  -0.00  -0.01
  43   7     0.00   0.00   0.00     0.13   0.08   0.10     0.00   0.00   0.00
  44   1     0.00  -0.00  -0.00     0.12  -0.42  -0.57     0.00  -0.00  -0.00
  45   1    -0.00   0.00   0.00    -0.62   0.11   0.22    -0.00   0.00   0.00
  46   6     0.00  -0.00   0.00     0.00   0.00  -0.00    -0.00   0.00   0.00
  47   8    -0.00   0.00   0.00    -0.00  -0.00  -0.00     0.00  -0.00  -0.00
  48   7     0.16   0.08   0.03    -0.00  -0.00  -0.00    -0.00  -0.00  -0.00
  49   1     0.05  -0.62  -0.21    -0.00   0.00   0.00    -0.00   0.02   0.01
  50   1    -0.65   0.31   0.08     0.00  -0.00  -0.00     0.02  -0.01  -0.00
  51   7    -0.01  -0.00   0.00     0.00  -0.00  -0.00     0.01   0.00  -0.00
  52   1     0.04  -0.01  -0.02    -0.00   0.00   0.00    -0.01   0.01   0.01
  53   1     0.01   0.01   0.00     0.00   0.00   0.00    -0.02  -0.01  -0.00
                    145                    146                    147
                        a                      a                      a 
 Frequencies --  3503.4593              3522.1327              3532.6202
 Red. masses --     1.4538                 1.9116                 1.9001
 Frc consts  --     0.0000                 0.0000                 0.0000
 IR Inten    --    18.1501                12.2738                16.0732
 Raman Activ --     0.0000                 0.0000                 0.0000
 Depolar     --     0.0000                 0.0000                 0.0000
 Atom AN      X      Y      Z        X      Y      Z        X      Y      Z
   1   8    -0.00   0.00   0.00     0.00   0.00   0.00     0.00  -0.00  -0.00
   2   6     0.00  -0.00  -0.00    -0.00  -0.00   0.00     0.00   0.00  -0.00
   3   1    -0.00   0.00   0.00    -0.00  -0.00  -0.00     0.00   0.00  -0.00
   4   1    -0.00  -0.00  -0.00     0.00   0.00   0.00    -0.00   0.00  -0.00
   5   6    -0.00   0.00   0.00    -0.00   0.00  -0.00     0.00  -0.00   0.00
   6   1     0.00  -0.00  -0.00     0.00  -0.00   0.00    -0.00   0.00   0.00
   7   1    -0.00   0.00   0.00    -0.00  -0.00   0.00     0.00   0.00  -0.00
   8   7     0.00  -0.00   0.00     0.00   0.00  -0.00     0.00  -0.00   0.00
   9   6    -0.00   0.00  -0.00     0.00   0.00   0.00    -0.00  -0.00  -0.00
  10   1    -0.00  -0.00   0.00    -0.00  -0.00   0.00     0.00   0.00   0.00
  11   1    -0.00   0.00  -0.00     0.00  -0.00   0.00     0.00   0.00   0.00
  12   1     0.00   0.00   0.00    -0.00   0.00  -0.00    -0.00  -0.00  -0.00
  13   6    -0.00   0.00   0.00    -0.00  -0.00  -0.00     0.00  -0.00   0.00
  14   1    -0.00   0.00   0.00     0.00   0.00   0.00    -0.00  -0.00  -0.00
  15   1    -0.00   0.00  -0.00     0.00   0.00  -0.00     0.00  -0.00   0.00
  16   1     0.00  -0.00  -0.00    -0.00   0.00   0.00    -0.00   0.00   0.00
  17   6    -0.00  -0.00   0.00     0.00   0.00  -0.00    -0.00  -0.00   0.00
  18   1     0.00  -0.00   0.00     0.00   0.00   0.00    -0.00   0.00   0.00
  19   1     0.00   0.00   0.00    -0.00  -0.00   0.00     0.00   0.00  -0.00
  20   1     0.00  -0.00   0.00    -0.00   0.00   0.00    -0.00  -0.00  -0.00
  21   1     0.00  -0.00  -0.01    -0.00  -0.00  -0.00    -0.00   0.00   0.00
  22   6     0.00  -0.00  -0.00    -0.00  -0.00   0.00    -0.00   0.00   0.00
  23   8    -0.00   0.00  -0.00     0.00   0.00   0.00     0.00  -0.00  -0.00
  24   7     0.06  -0.07  -0.15     0.00  -0.00  -0.00     0.00  -0.00   0.00
  25   1     0.18  -0.30   0.56     0.00  -0.00   0.00    -0.00   0.00  -0.00
  26   1    -0.43   0.57   0.01    -0.00   0.00   0.00    -0.00   0.00   0.00
  27   7    -0.00  -0.00   0.03     0.00  -0.00   0.00    -0.00   0.00  -0.00
  28   1    -0.03   0.05   0.00    -0.00   0.00   0.00     0.00  -0.00  -0.00
  29   1     0.04  -0.05  -0.11     0.00  -0.00  -0.00    -0.00   0.00   0.00
  30   6     0.00  -0.00   0.00     0.00   0.00  -0.00    -0.00   0.00  -0.01
  31   8     0.00   0.00  -0.00    -0.00  -0.00   0.00     0.00  -0.00   0.00
  32   7    -0.00   0.00  -0.00    -0.00  -0.00   0.00     0.05   0.10  -0.24
  33   1     0.00  -0.00   0.00     0.00  -0.00   0.00     0.07  -0.00   0.04
  34   1     0.00   0.00  -0.00     0.00   0.00  -0.01    -0.22  -0.39   0.85
  35   7     0.00   0.00  -0.00    -0.00   0.00  -0.00    -0.02  -0.00   0.01
  36   1    -0.00  -0.00   0.00    -0.00  -0.00   0.02     0.00   0.00  -0.02
  37   1    -0.00  -0.00   0.00     0.01   0.00  -0.00     0.08   0.01  -0.02
  38   6     0.00  -0.00  -0.00     0.00   0.00   0.00     0.00  -0.00  -0.00
  39   8    -0.00   0.00   0.00    -0.00   0.00  -0.00    -0.00   0.00   0.00
  40   7    -0.00   0.00   0.00    -0.00   0.00   0.00     0.00  -0.00  -0.01
  41   1     0.00   0.00   0.00     0.00   0.00   0.00     0.00   0.00   0.00
  42   1     0.00  -0.00  -0.00     0.00  -0.01  -0.01    -0.01   0.02   0.03
  43   7    -0.00  -0.00  -0.00     0.00  -0.00  -0.00    -0.00   0.00   0.00
  44   1    -0.00   0.00   0.00    -0.00   0.00   0.00     0.00  -0.01  -0.01
  45   1     0.00  -0.00  -0.00    -0.00  -0.00   0.00     0.00  -0.00  -0.00
  46   6     0.00  -0.00   0.00     0.01   0.00  -0.00     0.00  -0.00  -0.00
  47   8    -0.00   0.00  -0.00    -0.00  -0.00   0.00    -0.00   0.00   0.00
  48   7     0.00   0.00   0.00    -0.00   0.02   0.01    -0.00   0.00   0.00
  49   1     0.00  -0.00  -0.00     0.00  -0.07  -0.03     0.00  -0.00  -0.00
  50   1    -0.00   0.00   0.00     0.01  -0.00   0.00     0.00  -0.00   0.00
  51   7    -0.00   0.00   0.00     0.24  -0.07  -0.09     0.00  -0.00  -0.00
  52   1     0.00  -0.00  -0.00    -0.82   0.31   0.38    -0.01   0.00   0.00
  53   1     0.00  -0.00   0.00    -0.08  -0.07  -0.03    -0.00  -0.00  -0.00
                    148                    149                    150
                        a                      a                      a 
 Frequencies --  3538.9940              3555.6626              3562.3533
 Red. masses --     1.9066                 2.1676                 2.1786
 Frc consts  --     0.0000                 0.0000                 0.0000
 IR Inten    --    15.1910                22.2194                10.1610
 Raman Activ --     0.0000                 0.0000                 0.0000
 Depolar     --     0.0000                 0.0000                 0.0000
 Atom AN      X      Y      Z        X      Y      Z        X      Y      Z
   1   8     0.00  -0.00  -0.00    -0.00   0.00   0.00    -0.00   0.00   0.00
   2   6    -0.00  -0.00  -0.00     0.00   0.00  -0.00     0.00  -0.00   0.00
   3   1    -0.00   0.00   0.00    -0.00   0.00   0.00     0.00   0.00   0.00
   4   1     0.00   0.00   0.00    -0.00  -0.00  -0.00    -0.00  -0.00  -0.00
   5   6    -0.00  -0.00   0.00     0.00  -0.00  -0.00     0.00   0.00  -0.00
   6   1     0.00   0.00  -0.00     0.00  -0.00   0.00     0.00  -0.00  -0.00
   7   1     0.00   0.00   0.00     0.00   0.00   0.00    -0.00   0.00   0.00
   8   7     0.00   0.00   0.00     0.00  -0.00   0.00     0.00   0.00  -0.00
   9   6     0.00   0.00  -0.00     0.00  -0.00  -0.00    -0.00  -0.00  -0.00
  10   1    -0.00  -0.00   0.00    -0.00   0.00   0.00    -0.00   0.00  -0.00
  11   1     0.00   0.00   0.00    -0.00   0.00   0.00    -0.00  -0.00   0.00
  12   1    -0.00   0.00  -0.00    -0.00   0.00  -0.00     0.00   0.00   0.00
  13   6    -0.00  -0.00   0.00     0.00  -0.00   0.00    -0.00   0.00  -0.00
  14   1    -0.00   0.00  -0.00    -0.00   0.00   0.00     0.00  -0.00   0.00
  15   1    -0.00   0.00  -0.00    -0.00   0.00  -0.00    -0.00  -0.00   0.00
  16   1    -0.00   0.00   0.00     0.00  -0.00   0.00    -0.00  -0.00  -0.00
  17   6     0.00  -0.00  -0.00     0.00  -0.00  -0.00    -0.00  -0.00   0.00
  18   1    -0.00   0.00  -0.00    -0.00   0.00   0.00    -0.00  -0.00  -0.00
  19   1     0.00   0.00  -0.00    -0.00   0.00  -0.00    -0.00   0.00  -0.00
  20   1    -0.00   0.00  -0.00    -0.00  -0.00   0.00     0.00   0.00  -0.00
  21   1    -0.00   0.00   0.00     0.00  -0.00  -0.01     0.00  -0.00  -0.00
  22   6    -0.00   0.00  -0.00    -0.00   0.01   0.01     0.00  -0.00  -0.00
  23   8     0.00  -0.00  -0.00     0.00  -0.00  -0.00    -0.00   0.00   0.00
  24   7    -0.00   0.00  -0.00     0.03  -0.04   0.03    -0.00   0.00  -0.00
  25   1     0.00  -0.00   0.00    -0.04   0.07  -0.14     0.00  -0.00   0.00
  26   1     0.00  -0.00  -0.00    -0.07   0.09   0.01     0.00  -0.00  -0.00
  27   7    -0.00   0.00   0.00    -0.14   0.22   0.12    -0.00   0.00   0.00
  28   1     0.00  -0.00  -0.00     0.41  -0.66  -0.01     0.00  -0.00   0.00
  29   1     0.00  -0.00  -0.00     0.14  -0.17  -0.47     0.00  -0.00  -0.00
  30   6    -0.00  -0.00   0.00    -0.00   0.00  -0.00    -0.00  -0.00   0.00
  31   8     0.00  -0.00  -0.00     0.00  -0.00   0.00     0.00   0.00  -0.00
  32   7     0.00   0.00  -0.01     0.00  -0.00   0.00     0.00  -0.00   0.00
  33   1     0.00   0.00  -0.00    -0.00   0.00  -0.00    -0.00   0.00  -0.00
  34   1    -0.01  -0.01   0.03     0.00   0.00  -0.00     0.00   0.00  -0.00
  35   7    -0.00   0.00  -0.00     0.00   0.00  -0.00    -0.00  -0.00   0.00
  36   1    -0.00  -0.00   0.01    -0.00  -0.00   0.00     0.00   0.00  -0.01
  37   1     0.00   0.00  -0.00    -0.00  -0.00   0.00     0.00   0.00  -0.00
  38   6     0.00   0.00   0.01    -0.00   0.00  -0.00     0.00   0.00   0.00
  39   8    -0.00  -0.00  -0.00     0.00  -0.00   0.00    -0.00  -0.00  -0.00
  40   7    -0.03   0.14   0.22     0.00  -0.00   0.00     0.00   0.00   0.00
  41   1    -0.08  -0.01  -0.04    -0.00  -0.00  -0.00    -0.00  -0.00  -0.00
  42   1     0.16  -0.52  -0.79    -0.00   0.00   0.00     0.00  -0.00  -0.00
  43   7     0.02  -0.01  -0.01    -0.00   0.00   0.00     0.00  -0.00  -0.00
  44   1    -0.00   0.02   0.02     0.00  -0.00  -0.00    -0.00   0.00   0.00
  45   1    -0.09   0.01   0.03     0.00  -0.00  -0.00    -0.00   0.00   0.00
  46   6    -0.00   0.00   0.00    -0.00   0.00  -0.00    -0.01   0.01   0.00
  47   8     0.00  -0.00  -0.00     0.00  -0.00   0.00     0.00  -0.00  -0.00
  48   7     0.00  -0.00  -0.00    -0.00   0.00   0.00    -0.16   0.24   0.08
  49   1    -0.00   0.00   0.00     0.00  -0.00  -0.00     0.03  -0.66  -0.23
  50   1    -0.00   0.00  -0.00     0.00  -0.00  -0.00     0.59  -0.25  -0.06
  51   7    -0.00  -0.00   0.00    -0.00  -0.00   0.00    -0.01   0.00   0.01
  52   1     0.01  -0.00  -0.00     0.00  -0.00  -0.00     0.05  -0.02  -0.03
  53   1     0.00   0.00   0.00    -0.00   0.00  -0.00     0.01   0.01   0.00
                    151                    152                    153
                        a                      a                      a 
 Frequencies --  3565.4907              3566.1347              3569.4940
 Red. masses --     2.1820                 2.1849                 2.1847
 Frc consts  --     0.0000                 0.0000                 0.0000
 IR Inten    --    12.1743                21.2618                18.6976
 Raman Activ --     0.0000                 0.0000                 0.0000
 Depolar     --     0.0000                 0.0000                 0.0000
 Atom AN      X      Y      Z        X      Y      Z        X      Y      Z
   1   8     0.00  -0.00  -0.00     0.00  -0.00  -0.00     0.00  -0.00  -0.00
   2   6    -0.00   0.00   0.00    -0.00  -0.00   0.00    -0.00  -0.00   0.00
   3   1     0.00  -0.00  -0.00     0.00  -0.00  -0.00     0.00  -0.00  -0.00
   4   1    -0.00  -0.00   0.00    -0.00   0.00   0.00     0.00   0.00   0.00
   5   6    -0.00  -0.00  -0.00     0.00  -0.00  -0.00    -0.00  -0.00   0.00
   6   1    -0.00  -0.00  -0.00    -0.00  -0.00   0.00    -0.00   0.00  -0.00
   7   1     0.00   0.00   0.00     0.00   0.00   0.00     0.00  -0.00  -0.00
   8   7     0.00   0.00   0.00     0.00  -0.00   0.00     0.00   0.00  -0.00
   9   6    -0.00  -0.00   0.00     0.00  -0.00   0.00     0.00  -0.00   0.00
  10   1     0.00   0.00  -0.00     0.00   0.00   0.00     0.00   0.00  -0.00
  11   1     0.00  -0.00  -0.00    -0.00   0.00  -0.00     0.00  -0.00   0.00
  12   1     0.00  -0.00  -0.00    -0.00  -0.00  -0.00    -0.00   0.00  -0.00
  13   6    -0.00   0.00   0.00     0.00  -0.00   0.00     0.00  -0.00  -0.00
  14   1     0.00  -0.00   0.00    -0.00  -0.00  -0.00     0.00  -0.00  -0.00
  15   1    -0.00   0.00  -0.00     0.00  -0.00   0.00     0.00  -0.00   0.00
  16   1    -0.00   0.00   0.00    -0.00   0.00   0.00    -0.00   0.00   0.00
  17   6    -0.00   0.00  -0.00     0.00  -0.00   0.00    -0.00   0.00   0.00
  18   1     0.00  -0.00   0.00    -0.00   0.00   0.00     0.00  -0.00  -0.00
  19   1     0.00  -0.00   0.00     0.00   0.00  -0.00     0.00  -0.00  -0.00
  20   1     0.00  -0.00   0.00    -0.00  -0.00  -0.00     0.00  -0.00  -0.00
  21   1    -0.00   0.00   0.00    -0.00   0.00   0.00    -0.00   0.00   0.01
  22   6    -0.00   0.00   0.00     0.00  -0.00   0.00     0.01  -0.01   0.00
  23   8     0.00  -0.00  -0.00    -0.00   0.00  -0.00    -0.00   0.00  -0.00
  24   7     0.00  -0.00   0.00     0.00  -0.00   0.00     0.15  -0.21   0.14
  25   1    -0.00   0.00  -0.00    -0.00   0.00  -0.00    -0.17   0.29  -0.59
  26   1    -0.00   0.00   0.00    -0.00   0.00   0.00    -0.38   0.51   0.04
  27   7    -0.00   0.00   0.00     0.00  -0.00  -0.00     0.03  -0.05  -0.03
  28   1     0.00  -0.00  -0.00    -0.00   0.00   0.00    -0.09   0.14   0.00
  29   1     0.00  -0.00  -0.00    -0.00   0.00   0.00    -0.03   0.04   0.10
  30   6    -0.00  -0.00   0.00     0.01   0.00  -0.01    -0.00  -0.00   0.00
  31   8     0.00   0.00   0.00    -0.00  -0.00   0.00     0.00  -0.00   0.00
  32   7    -0.00  -0.00  -0.00     0.00   0.01  -0.02    -0.00  -0.00   0.00
  33   1     0.00  -0.00   0.00     0.01  -0.00   0.00    -0.00   0.00  -0.00
  34   1     0.00   0.00  -0.00    -0.02  -0.03   0.06     0.00   0.00  -0.00
  35   7    -0.03  -0.01   0.03     0.20   0.06  -0.21    -0.00  -0.00   0.00
  36   1     0.02   0.02  -0.08    -0.14  -0.13   0.64     0.00   0.00  -0.00
  37   1     0.08   0.01  -0.02    -0.64  -0.09   0.15     0.00   0.00  -0.00
  38   6     0.01  -0.00  -0.01     0.00  -0.00  -0.00    -0.00   0.00   0.00
  39   8    -0.00   0.00   0.00    -0.00   0.00   0.00     0.00  -0.00   0.00
  40   7     0.00  -0.01  -0.02    -0.00  -0.00  -0.00     0.00   0.00   0.00
  41   1     0.01   0.00   0.00     0.01   0.00   0.00    -0.00  -0.00  -0.00
  42   1    -0.02   0.05   0.07    -0.00   0.01   0.01     0.00  -0.00  -0.00
  43   7     0.19  -0.12  -0.19     0.02  -0.02  -0.02    -0.00   0.00   0.00
  44   1    -0.08   0.38   0.51    -0.01   0.05   0.07     0.00  -0.00  -0.00
  45   1    -0.65   0.09   0.21    -0.08   0.01   0.03     0.00  -0.00  -0.00
  46   6     0.00  -0.00  -0.00    -0.00   0.00   0.00    -0.00   0.00   0.00
  47   8    -0.00   0.00   0.00     0.00  -0.00  -0.00     0.00  -0.00   0.00
  48   7     0.00  -0.00  -0.00    -0.00   0.00   0.00    -0.00   0.00   0.00
  49   1    -0.00   0.00   0.00     0.00  -0.00  -0.00     0.00  -0.00  -0.00
  50   1    -0.00   0.00   0.00     0.01  -0.00  -0.00     0.00  -0.00  -0.00
  51   7     0.00  -0.00  -0.00    -0.00   0.00   0.00    -0.00  -0.00   0.00
  52   1    -0.00   0.00   0.00     0.01  -0.00  -0.00     0.00  -0.00  -0.00
  53   1     0.00   0.00  -0.00    -0.01  -0.01  -0.00     0.00   0.00   0.00
