      -----------------------------------------------------------      
     |                   =====================                   |     
     |                           x T B                           |     
     |                   =====================                   |     
     |                         S. Grimme                         |     
     |          Mulliken Center for Theoretical Chemistry        |     
     |                    University of Bonn                     |     
      -----------------------------------------------------------      

   * xtb version 6.6.1 (unknown-commit) compiled by '@Linux' on 12/27/2023

   xtb is free software: you can redistribute it and/or modify it under
   the terms of the GNU Lesser General Public License as published by
   the Free Software Foundation, either version 3 of the License, or
   (at your option) any later version.
   
   xtb is distributed in the hope that it will be useful,
   but WITHOUT ANY WARRANTY; without even the implied warranty of
   MERCHANTABILITY or FITNESS FOR A PARTICULAR PURPOSE.  See the
   GNU Lesser General Public License for more details.
   
   Cite this work as:
   * C. Bannwarth, E. Caldeweyher, S. Ehlert, A. Hansen, P. Pracht,
     J. Seibert, S. Spicher, S. Grimme, WIREs Comput. Mol. Sci., 2020, 11,
     e01493. DOI: 10.1002/wcms.1493
   
   for GFN2-xTB:
   * C. Bannwarth, S. Ehlert and S. Grimme., J. Chem. Theory Comput., 2019,
     15, 1652-1671. DOI: 10.1021/acs.jctc.8b01176
   for GFN1-xTB:
   * S. Grimme, C. Bannwarth, P. Shushkov, J. Chem. Theory Comput., 2017,
     13, 1989-2009. DOI: 10.1021/acs.jctc.7b00118
   for GFN0-xTB:
   * P. Pracht, E. Caldeweyher, S. Ehlert, S. Grimme, ChemRxiv, 2019, preprint.
     DOI: 10.26434/chemrxiv.8326202.v1
   for GFN-FF:
   * S. Spicher and S. Grimme, Angew. Chem. Int. Ed., 2020, 59, 15665-15673.
     DOI: 10.1002/anie.202004239
   
   for ALPB and GBSA implicit solvation:
   * S. Ehlert, M. Stahn, S. Spicher, S. Grimme, J. Chem. Theory Comput.,
     2021, 17, 4250-4261. DOI: 10.1021/acs.jctc.1c00471
   
   for DFT-D4:
   * E. Caldeweyher, C. Bannwarth and S. Grimme, J. Chem. Phys., 2017,
     147, 034112. DOI: 10.1063/1.4993215
   * E. Caldeweyher, S. Ehlert, A. Hansen, H. Neugebauer, S. Spicher,
     C. Bannwarth and S. Grimme, J. Chem. Phys., 2019, 150, 154122.
     DOI: 10.1063/1.5090222
   * E. Caldeweyher, J.-M. Mewes, S. Ehlert and S. Grimme, Phys. Chem. Chem. Phys.
     2020, 22, 8499-8512. DOI: 10.1039/D0CP00502A
   
   for sTDA-xTB:
   * S. Grimme and C. Bannwarth, J. Chem. Phys., 2016, 145, 054103.
     DOI: 10.1063/1.4959605
   
   in the mass-spec context:
   * V. Asgeirsson, C. Bauer and S. Grimme, Chem. Sci., 2017, 8, 4879.
     DOI: 10.1039/c7sc00601b
   * J. Koopman and S. Grimme, ACS Omega 2019, 4, 12, 15120-15133.
     DOI: 10.1021/acsomega.9b02011
   
   for metadynamics refer to:
   * S. Grimme, J. Chem. Theory Comput., 2019, 155, 2847-2862
     DOI: 10.1021/acs.jctc.9b00143
   
   for SPH calculations refer to:
   * S. Spicher and S. Grimme, J. Chem. Theory Comput., 2021, 17, 1701-1714
     DOI: 10.1021/acs.jctc.0c01306
   
   with help from (in alphabetical order)
   P. Atkinson, C. Bannwarth, F. Bohle, G. Brandenburg, E. Caldeweyher
   M. Checinski, S. Dohm, S. Ehlert, S. Ehrlich, I. Gerasimov, C. Hölzer
   A. Katbashev, J. Koopman, C. Lavigne, S. Lehtola, F. März, M. Müller,
   F. Musil, H. Neugebauer, J. Pisarek, C. Plett, P. Pracht, F. Pultar,
   J. Seibert, P. Shushkov, S. Spicher, M. Stahn, M. Steiner, T. Strunk,
   J. Stückrath, T. Rose, and J. Unsleber
   
 * started run on 2024/01/10 at 18:23:44.592     

           -------------------------------------------------
          |                Calculation Setup                |
           -------------------------------------------------

          program call               : xtb struc.xyz --gfn2 --hess
          hostname                   : swaroop
          coordinate file            : struc.xyz
          omp threads                :                     1

   ID    Z sym.   atoms
    1    8 O      1, 23, 31, 39, 47
    2    6 C      2, 5, 9, 13, 17, 22, 30, 38, 46
    3    1 H      3, 4, 6, 7, 10-12, 14-16, 18-21, 25, 26, 28, 29, 33, 34,
                  36, 37, 41, 42, 44, 45, 49, 50, 52, 53
    4    7 N      8, 24, 27, 32, 35, 40, 43, 48, 51

molecular fragmentation (1/2 indicates fragments):
11111111111111111111122222222222222222222222222222222
# atoms in fragment 1/2:    21    32
 fragment masses (1/2) :      104.17      240.22
CMA distance (Bohr)    :   6.272
constraining FC (au)   :  0.0500

           -------------------------------------------------
          |                 G F N 2 - x T B                 |
           -------------------------------------------------

        Reference                      10.1021/acs.jctc.8b01176
      * Hamiltonian:
        H0-scaling (s, p, d)           1.850000    2.230000    2.230000
        zeta-weighting                 0.500000
      * Dispersion:
        s8                             2.700000
        a1                             0.520000
        a2                             5.000000
        s9                             5.000000
      * Repulsion:
        kExp                           1.500000    1.000000
        rExp                           1.000000
      * Coulomb:
        alpha                          2.000000
        third order                    shell-resolved
        anisotropic                    true
        a3                             3.000000
        a5                             4.000000
        cn-shift                       1.200000
        cn-exp                         4.000000
        max-rad                        5.000000


          ...................................................
          :                      SETUP                      :
          :.................................................:
          :  # basis functions                 122          :
          :  # atomic orbitals                 122          :
          :  # shells                           76          :
          :  # electrons                       140          :
          :  max. iterations                   250          :
          :  Hamiltonian                  GFN2-xTB          :
          :  restarted?                      false          :
          :  GBSA solvation                  false          :
          :  PC potential                    false          :
          :  electronic temp.          300.0000000     K    :
          :  accuracy                    1.0000000          :
          :  -> integral cutoff          0.2500000E+02      :
          :  -> integral neglect         0.1000000E-07      :
          :  -> SCF convergence          0.1000000E-05 Eh   :
          :  -> wf. convergence          0.1000000E-03 e    :
          :  Broyden damping             0.4000000          :
          ...................................................

 iter      E             dE          RMSdq      gap      omega  full diag
   1    -81.5584412 -0.815584E+02  0.430E+00    5.12       0.0  T
   2    -81.8399974 -0.281556E+00  0.234E+00    5.85       1.0  T
   3    -81.8459322 -0.593476E-02  0.114E+00    5.61       1.0  T
   4    -81.8473628 -0.143063E-02  0.247E-01    5.70       1.0  T
   5    -81.8483014 -0.938616E-03  0.916E-02    5.64       1.0  T
   6    -81.8483258 -0.243167E-04  0.270E-02    5.65       1.0  T
   7    -81.8483298 -0.401456E-05  0.755E-03    5.65       1.8  T
   8    -81.8483300 -0.279837E-06  0.274E-03    5.65       5.0  T
   9    -81.8483301 -0.219835E-07  0.993E-04    5.65      13.8  T
  10    -81.8483301 -0.600868E-08  0.186E-04    5.65      73.8  T

   *** convergence criteria satisfied after 10 iterations ***

         #    Occupation            Energy/Eh            Energy/eV
      -------------------------------------------------------------
         1        2.0000           -0.8053968             -21.9160
       ...           ...                  ...                  ...
        64        2.0000           -0.5006997             -13.6247
        65        2.0000           -0.5000935             -13.6082
        66        2.0000           -0.4938976             -13.4396
        67        2.0000           -0.4930671             -13.4170
        68        2.0000           -0.4923057             -13.3963
        69        2.0000           -0.4917561             -13.3814
        70        2.0000           -0.4890101             -13.3066 (HOMO)
        71                         -0.2814061              -7.6575 (LUMO)
        72                         -0.2675717              -7.2810
        73                         -0.2643841              -7.1943
        74                         -0.2620399              -7.1305
        75                         -0.1594703              -4.3394
       ...                                ...                  ...
       122                          0.5629705              15.3192
      -------------------------------------------------------------
                  HL-Gap            0.2076040 Eh            5.6492 eV
             Fermi-level           -0.3852081 Eh          -10.4820 eV

 SCC (total)                   0 d,  0 h,  0 min,  0.087 sec
 SCC setup                      ...        0 min,  0.000 sec (  0.333%)
 Dispersion                     ...        0 min,  0.001 sec (  0.669%)
 classical contributions        ...        0 min,  0.000 sec (  0.210%)
 integral evaluation            ...        0 min,  0.008 sec (  9.458%)
 iterations                     ...        0 min,  0.048 sec ( 55.786%)
 molecular gradient             ...        0 min,  0.029 sec ( 33.225%)
 printout                       ...        0 min,  0.000 sec (  0.308%)

         :::::::::::::::::::::::::::::::::::::::::::::::::::::
         ::                     SUMMARY                     ::
         :::::::::::::::::::::::::::::::::::::::::::::::::::::
         :: total energy             -80.937015657572 Eh    ::
         :: gradient norm              0.000050362031 Eh/a0 ::
         :: HOMO-LUMO gap              5.649191696517 eV    ::
         ::.................................................::
         :: SCC energy               -81.848330077199 Eh    ::
         :: -> isotropic ES            0.296220472426 Eh    ::
         :: -> anisotropic ES         -0.029466568311 Eh    ::
         :: -> anisotropic XC          0.020351587671 Eh    ::
         :: -> dispersion             -0.046548994977 Eh    ::
         :: repulsion energy           0.909311836799 Eh    ::
         :: add. restraining           0.000000000000 Eh    ::
         :: total charge               1.000000000000 e     ::
         :::::::::::::::::::::::::::::::::::::::::::::::::::::

           ------------------------------------------------- 
          |                Numerical Hessian                |
           ------------------------------------------------- 
step length          :   0.00500
SCC accuracy         :   0.30000
Hessian scale factor :   1.00000
frozen atoms in %    :   0.00000    0
RMS gradient         :   0.00005
estimated CPU  time      0.24 min
estimated wall time      0.24 min

writing file <hessian>.

 projected vibrational frequencies (cm⁻¹)
eigval :       -0.00    -0.00    -0.00     0.00     0.00     0.00
eigval :       15.18    23.51    26.76    37.26    42.44    43.85
eigval :       48.39    52.96    55.49    62.67    66.87    76.00
eigval :       79.05    94.11    98.67   106.28   112.11   116.31
eigval :      123.85   126.68   141.77   148.23   175.67   183.60
eigval :      186.21   224.02   226.01   236.66   258.25   267.75
eigval :      284.58   297.95   319.57   331.78   351.98   377.36
eigval :      404.61   418.67   426.90   459.75   461.37   463.82
eigval :      471.68   472.23   474.94   479.59   481.77   490.42
eigval :      503.35   512.65   532.43   540.93   553.24   555.93
eigval :      559.12   582.35   611.45   651.02   669.05   675.29
eigval :      681.62   689.77   715.30   755.22   763.89   834.81
eigval :      919.22   921.04   950.97   964.76   966.64   987.54
eigval :      992.95  1000.38  1013.81  1018.41  1023.52  1031.57
eigval :     1035.76  1038.38  1039.69  1082.42  1087.71  1090.33
eigval :     1095.66  1098.24  1106.65  1123.29  1157.68  1222.92
eigval :     1244.93  1271.59  1318.84  1323.84  1342.53  1351.69
eigval :     1357.83  1360.00  1371.65  1392.55  1401.80  1410.82
eigval :     1423.54  1436.66  1443.61  1447.11  1453.73  1455.08
eigval :     1456.99  1457.67  1461.82  1464.22  1470.42  1479.68
eigval :     1481.48  1500.48  1503.93  1511.45  1528.03  1642.35
eigval :     1681.71  1700.85  1711.56  2917.63  2987.75  2989.50
eigval :     3022.95  3028.54  3038.98  3041.11  3041.53  3043.97
eigval :     3047.14  3052.16  3059.07  3062.17  3073.29  3159.89
eigval :     3221.80  3346.89  3370.00  3413.09  3497.70  3500.48
eigval :     3503.10  3503.64  3527.64  3531.82  3533.91  3545.18
eigval :     3563.90  3566.56  3568.98
           -------------------------------------------------
          |                Property Printout                |
           -------------------------------------------------

    * Orbital Energies and Occupations

         #    Occupation            Energy/Eh            Energy/eV
      -------------------------------------------------------------
         1        2.0000           -0.8053961             -21.9159
       ...           ...                  ...                  ...
        58        2.0000           -0.5142224             -13.9927
        59        2.0000           -0.5128026             -13.9541
        60        2.0000           -0.5096108             -13.8672
        61        2.0000           -0.5048167             -13.7368
        62        2.0000           -0.5022168             -13.6660
        63        2.0000           -0.5012695             -13.6402
        64        2.0000           -0.5007014             -13.6248
        65        2.0000           -0.5000947             -13.6083
        66        2.0000           -0.4938993             -13.4397
        67        2.0000           -0.4930692             -13.4171
        68        2.0000           -0.4923081             -13.3964
        69        2.0000           -0.4917567             -13.3814
        70        2.0000           -0.4890115             -13.3067 (HOMO)
        71                         -0.2814089              -7.6575 (LUMO)
        72                         -0.2675717              -7.2810
        73                         -0.2643859              -7.1943
        74                         -0.2620420              -7.1305
        75                         -0.1594696              -4.3394
        76                         -0.1083556              -2.9485
        77                         -0.0933730              -2.5408
        78                         -0.0919187              -2.5012
        79                         -0.0832493              -2.2653
        80                         -0.0802951              -2.1849
        81                         -0.0725659              -1.9746
       ...                                ...                  ...
       122                          0.5629690              15.3192
      -------------------------------------------------------------
                  HL-Gap            0.2076026 Eh            5.6492 eV
             Fermi-level           -0.3852102 Eh          -10.4821 eV

     #   Z          covCN         q      C6AA      α(0)
     1   8 O        1.655    -0.451    21.867     6.313
     2   6 C        3.673     0.066    19.705     6.362
     3   1 H        0.924     0.059     2.210     2.325
     4   1 H        0.924     0.060     2.204     2.321
     5   6 C        3.771    -0.080    22.057     6.693
     6   1 H        0.924     0.118     1.627     1.995
     7   1 H        0.924     0.120     1.612     1.985
     8   7 N        3.623     0.156    18.610     6.407
     9   6 C        3.720    -0.103    22.597     6.789
    10   1 H        0.925     0.109     1.704     2.041
    11   1 H        0.925     0.079     1.986     2.204
    12   1 H        0.925     0.110     1.693     2.035
    13   6 C        3.738    -0.115    22.788     6.812
    14   1 H        0.925     0.110     1.695     2.036
    15   1 H        0.925     0.122     1.601     1.979
    16   1 H        0.925     0.084     1.940     2.178
    17   6 C        3.723    -0.105    22.626     6.793
    18   1 H        0.925     0.089     1.889     2.149
    19   1 H        0.925     0.085     1.933     2.174
    20   1 H        0.925     0.122     1.600     1.978
    21   1 H        0.804     0.308     0.697     1.312
    22   6 C        2.675     0.342    21.185     7.532
    23   8 O        0.860    -0.532    24.505     6.637
    24   7 N        2.641    -0.335    28.621     7.946
    25   1 H        0.859     0.248     0.891     1.479
    26   1 H        0.860     0.176     1.237     1.742
    27   7 N        2.644    -0.286    27.377     7.771
    28   1 H        0.861     0.188     1.168     1.693
    29   1 H        0.860     0.203     1.090     1.635
    30   6 C        2.675     0.341    21.210     7.536
    31   8 O        0.861    -0.536    24.606     6.651
    32   7 N        2.644    -0.303    27.800     7.831
    33   1 H        0.860     0.227     0.978     1.549
    34   1 H        0.861     0.179     1.218     1.729
    35   7 N        2.644    -0.301    27.763     7.825
    36   1 H        0.860     0.179     1.220     1.730
    37   1 H        0.859     0.246     0.900     1.486
    38   6 C        2.675     0.343    21.181     7.531
    39   8 O        0.860    -0.543    24.756     6.671
    40   7 N        2.646    -0.296    27.632     7.807
    41   1 H        0.861     0.193     1.142     1.674
    42   1 H        0.861     0.182     1.203     1.718
    43   7 N        2.645    -0.298    27.681     7.814
    44   1 H        0.861     0.181     1.210     1.723
    45   1 H        0.860     0.239     0.926     1.507
    46   6 C        2.675     0.343    21.172     7.529
    47   8 O        0.861    -0.526    24.357     6.617
    48   7 N        2.644    -0.313    28.055     7.867
    49   1 H        0.859     0.245     0.905     1.490
    50   1 H        0.861     0.177     1.230     1.738
    51   7 N        2.645    -0.289    27.457     7.782
    52   1 H        0.861     0.184     1.192     1.710
    53   1 H        0.860     0.201     1.103     1.645

 Mol. C6AA /au·bohr⁶  :      21780.117216
 Mol. C8AA /au·bohr⁸  :     454241.137701
 Mol. α(0) /au        :        220.476163


Wiberg/Mayer (AO) data.
largest (>0.10) Wiberg bond orders for each atom

 ---------------------------------------------------------------------------
     #   Z sym  total        # sym  WBO       # sym  WBO       # sym  WBO
 ---------------------------------------------------------------------------
     1   8 O    1.962 --     2 C    1.011    21 H    0.869
     2   6 C    3.960 --     1 O    1.011     5 C    0.998     3 H    0.964
                             4 H    0.959
     3   1 H    0.996 --     2 C    0.964
     4   1 H    0.996 --     2 C    0.959
     5   6 C    3.917 --     2 C    0.998     7 H    0.947     6 H    0.946
                             8 N    0.926
     6   1 H    0.986 --     5 C    0.946
     7   1 H    0.986 --     5 C    0.947
     8   7 N    3.821 --    17 C    0.962     9 C    0.959    13 C    0.955
                             5 C    0.926
     9   6 C    3.927 --    11 H    0.978    12 H    0.969    10 H    0.968
                             8 N    0.959
    10   1 H    0.988 --     9 C    0.968
    11   1 H    0.994 --     9 C    0.978
    12   1 H    0.988 --     9 C    0.969
    13   6 C    3.921 --    16 H    0.978    14 H    0.971    15 H    0.963
                             8 N    0.955
    14   1 H    0.988 --    13 C    0.971
    15   1 H    0.985 --    13 C    0.963
    16   1 H    0.993 --    13 C    0.978
    17   6 C    3.930 --    19 H    0.977    18 H    0.974    20 H    0.963
                             8 N    0.962
    18   1 H    0.992 --    17 C    0.974
    19   1 H    0.993 --    17 C    0.977
    20   1 H    0.985 --    17 C    0.963
    21   1 H    0.905 --     1 O    0.869
    22   6 C    3.959 --    23 O    1.506    27 N    1.226    24 N    1.212
    23   8 O    1.894 --    22 C    1.506    27 N    0.141    24 N    0.134
    24   7 N    3.300 --    22 C    1.212    26 H    0.949    25 H    0.853
                            23 O    0.134
    25   1 H    0.939 --    24 N    0.853
    26   1 H    0.969 --    24 N    0.949
    27   7 N    3.342 --    22 C    1.226    28 H    0.946    29 H    0.941
                            23 O    0.141
    28   1 H    0.964 --    27 N    0.946
    29   1 H    0.958 --    27 N    0.941
    30   6 C    3.960 --    31 O    1.445    35 N    1.265    32 N    1.238
    31   8 O    1.928 --    30 C    1.445    35 N    0.131    32 N    0.130
    32   7 N    3.336 --    30 C    1.238    34 H    0.949    33 H    0.896
                            31 O    0.130
    33   1 H    0.948 --    32 N    0.896
    34   1 H    0.967 --    32 N    0.949
    35   7 N    3.342 --    30 C    1.265    36 H    0.948    37 H    0.865
                            31 O    0.131
    36   1 H    0.967 --    35 N    0.948
    37   1 H    0.939 --    35 N    0.865
    38   6 C    3.959 --    39 O    1.509    43 N    1.249    40 N    1.193
    39   8 O    1.872 --    38 C    1.509    43 N    0.147    40 N    0.135
    40   7 N    3.309 --    38 C    1.193    42 H    0.948    41 H    0.946
                            39 O    0.135
    41   1 H    0.963 --    40 N    0.946
    42   1 H    0.967 --    40 N    0.948
    43   7 N    3.345 --    38 C    1.249    44 H    0.948    45 H    0.892
                            39 O    0.147
    44   1 H    0.967 --    43 N    0.948
    45   1 H    0.943 --    43 N    0.892
    46   6 C    3.959 --    47 O    1.486    48 N    1.252    51 N    1.209
    47   8 O    1.918 --    46 C    1.486    48 N    0.142    51 N    0.131
    48   7 N    3.336 --    46 C    1.252    50 H    0.949    49 H    0.864
                            47 O    0.142
    49   1 H    0.940 --    48 N    0.864
    50   1 H    0.968 --    48 N    0.949
    51   7 N    3.323 --    46 C    1.209    52 H    0.947    53 H    0.943
                            47 O    0.131
    52   1 H    0.966 --    51 N    0.947
    53   1 H    0.960 --    51 N    0.943
 ---------------------------------------------------------------------------

Topologies differ in total number of bonds
Writing topology from bond orders to xtbtopo.mol

molecular dipole:
                 x           y           z       tot (Debye)
 q only:        0.001      -1.584      -0.433
   full:       -0.012      -0.965      -0.470       2.729
molecular quadrupole (traceless):
                xx          xy          yy          xz          yz          zz
 q only:        6.644     -17.837      -8.470      16.530      10.229       1.825
  q+dip:       11.534     -21.319     -15.124      20.980      13.957       3.589
   full:       11.225     -20.571     -14.896      21.110      13.626       3.671

           -------------------------------------------------
          |               Frequency Printout                |
           -------------------------------------------------
 projected vibrational frequencies (cm⁻¹)
eigval :       -0.00    -0.00    -0.00     0.00     0.00     0.00
eigval :       15.18    23.51    26.76    37.26    42.44    43.85
eigval :       48.39    52.96    55.49    62.67    66.87    76.00
eigval :       79.05    94.11    98.67   106.28   112.11   116.31
eigval :      123.85   126.68   141.77   148.23   175.67   183.60
eigval :      186.21   224.02   226.01   236.66   258.25   267.75
eigval :      284.58   297.95   319.57   331.78   351.98   377.36
eigval :      404.61   418.67   426.90   459.75   461.37   463.82
eigval :      471.68   472.23   474.94   479.59   481.77   490.42
eigval :      503.35   512.65   532.43   540.93   553.24   555.93
eigval :      559.12   582.35   611.45   651.02   669.05   675.29
eigval :      681.62   689.77   715.30   755.22   763.89   834.81
eigval :      919.22   921.04   950.97   964.76   966.64   987.54
eigval :      992.95  1000.38  1013.81  1018.41  1023.52  1031.57
eigval :     1035.76  1038.38  1039.69  1082.42  1087.71  1090.33
eigval :     1095.66  1098.24  1106.65  1123.29  1157.68  1222.92
eigval :     1244.93  1271.59  1318.84  1323.84  1342.53  1351.69
eigval :     1357.83  1360.00  1371.65  1392.55  1401.80  1410.82
eigval :     1423.54  1436.66  1443.61  1447.11  1453.73  1455.08
eigval :     1456.99  1457.67  1461.82  1464.22  1470.42  1479.68
eigval :     1481.48  1500.48  1503.93  1511.45  1528.03  1642.35
eigval :     1681.71  1700.85  1711.56  2917.63  2987.75  2989.50
eigval :     3022.95  3028.54  3038.98  3041.11  3041.53  3043.97
eigval :     3047.14  3052.16  3059.07  3062.17  3073.29  3159.89
eigval :     3221.80  3346.89  3370.00  3413.09  3497.70  3500.48
eigval :     3503.10  3503.64  3527.64  3531.82  3533.91  3545.18
eigval :     3563.90  3566.56  3568.98
 reduced masses (amu)
   1: 12.70   2: 12.76   3: 12.34   4: 12.15   5: 12.46   6: 12.72   7: 12.14   8: 12.67
   9: 12.20  10: 12.39  11: 12.55  12: 12.36  13: 12.09  14: 12.63  15: 12.46  16: 12.01
  17: 12.05  18: 12.40  19: 12.74  20: 11.33  21: 12.77  22: 13.47  23: 13.31  24: 12.63
  25: 11.97  26: 13.82  27: 13.42  28: 13.14  29: 12.52  30: 10.63  31: 12.30  32:  3.39
  33: 10.97  34:  3.07  35:  4.25  36:  2.80  37:  6.95  38:  3.50  39:  7.29  40:  2.14
  41:  2.02  42:  7.05  43:  3.27  44:  2.84  45:  8.74  46:  7.35  47:  5.59  48:  2.62
  49:  7.82  50:  6.19  51:  6.83  52:  5.72  53:  5.63  54:  3.01  55:  2.85  56:  8.92
  57: 11.35  58:  4.19  59: 11.42  60: 10.43  61:  7.91  62: 12.04  63:  2.43  64:  5.73
  65: 11.29  66: 11.86  67: 11.35  68:  7.53  69:  1.71  70:  2.76  71:  8.73  72:  3.06
  73:  7.46  74:  7.76  75:  5.06  76:  5.63  77:  5.03  78:  4.47  79:  7.16  80:  8.52
  81:  6.97  82:  6.02  83:  9.28  84:  9.91  85:  6.37  86:  5.03  87:  9.88  88:  9.86
  89:  7.30  90:  8.34  91:  7.93  92:  3.88  93:  6.39  94:  7.74  95:  3.00  96:  5.40
  97:  7.59  98:  8.26  99:  3.98 100:  5.21 101:  3.54 102:  5.00 103:  4.58 104:  5.63
 105:  5.26 106:  4.48 107:  2.56 108:  2.56 109:  2.14 110:  2.36 111:  1.64 112:  3.19
 113:  2.98 114:  1.75 115:  3.46 116:  1.72 117:  2.78 118:  2.20 119:  1.64 120:  1.71
 121:  1.63 122:  8.35 123:  8.34 124:  8.90 125:  9.74 126: 12.12 127: 12.65 128: 12.68
 129: 12.74 130:  1.77 131:  1.69 132:  1.75 133:  1.76 134:  1.71 135:  1.59 136:  1.80
 137:  1.58 138:  1.88 139:  1.80 140:  1.85 141:  1.68 142:  1.70 143:  1.83 144:  1.82
 145:  1.78 146:  1.72 147:  1.71 148:  1.89 149:  1.47 150:  1.45 151:  1.45 152:  1.84
 153:  1.89 154:  1.90 155:  1.94 156:  1.95 157:  2.19 158:  2.18 159:  2.18
 IR intensities (km·mol⁻¹)
   1:  2.28   2:  1.59   3:  0.58   4:  1.77   5:  2.01   6:  0.69   7:  0.14   8:  1.15
   9:  0.30  10:  1.16  11:  1.27  12:  1.58  13:  0.40  14:  2.48  15:  0.94  16:  2.42
  17:  0.68  18:  2.08  19:  1.79  20:  1.47  21:  9.78  22:  2.65  23:  4.31  24: 21.63
  25: 21.94  26: 20.58  27: 10.72  28:  7.34  29:  1.94  30:  6.77  31: 19.02  32:192.75
  33: 50.95  34:123.07  35: 39.17  36:161.88  37:  0.85  38:  0.56  39:  0.34  40:122.19
  41:  5.35  42:  4.17  43: 59.63  44:463.57  45:  0.39  46: 48.51  47: 57.13  48:  9.13
  49: 11.29  50: 72.19  51: 65.13  52: 29.91  53: 10.97  54: 53.47  55: 63.36  56: 70.04
  57: 20.29  58: 92.81  59: 20.77  60: 11.06  61: 39.91  62: 56.96  63:  3.02  64:126.46
  65: 10.65  66: 38.99  67: 11.84  68:202.57  69:  7.46  70:308.12  71: 15.68  72:486.56
  73:  8.92  74:  4.43  75:  1.12  76:  5.97  77:  3.70  78:  9.80  79: 16.40  80: 18.28
  81: 60.12  82: 10.94  83:  1.66  84:  5.35  85:  9.16  86:  8.97  87:  3.72  88:  0.19
  89: 20.88  90:  2.71  91:  1.94  92: 22.34  93:  5.91  94: 28.97  95: 10.73  96:  4.38
  97:  2.10  98:  2.01  99:  6.10 100: 20.56 101: 41.74 102:302.70 103: 66.98 104: 83.24
 105: 14.74 106:  4.99 107: 21.81 108:  5.98 109: 13.61 110:  6.20 111:  1.21 112: 13.24
 113: 21.50 114:  5.79 115: 15.65 116:  1.14 117:  8.82 118:  3.13 119: 12.98 120: 15.51
 121: 41.52 122:676.74 123:627.17 124:171.18 125:570.83 126:137.66 127:268.78 128:******
 129:****** 130: 12.46 131: 29.81 132: 37.12 133: 10.37 134: 11.46 135: 22.09 136: 14.64
 137:  2.46 138:  2.39 139: 18.63 140:  3.23 141:  1.43 142:  4.02 143:****** 144: 32.37
 145:****** 146:443.45 147:638.41 148:204.42 149: 22.31 150: 18.51 151: 14.52 152: 12.62
 153: 10.11 154: 14.77 155: 19.17 156: 25.02 157: 16.51 158: 15.01 159:  8.78
 Raman intensities (amu)
Molecule has no symmetry elements
It seems to be the C1 point group
   1:  0.00   2:  0.00   3:  0.00   4:  0.00   5:  0.00   6:  0.00   7:  0.00   8:  0.00
   9:  0.00  10:  0.00  11:  0.00  12:  0.00  13:  0.00  14:  0.00  15:  0.00  16:  0.00
  17:  0.00  18:  0.00  19:  0.00  20:  0.00  21:  0.00  22:  0.00  23:  0.00  24:  0.00
  25:  0.00  26:  0.00  27:  0.00  28:  0.00  29:  0.00  30:  0.00  31:  0.00  32:  0.00
  33:  0.00  34:  0.00  35:  0.00  36:  0.00  37:  0.00  38:  0.00  39:  0.00  40:  0.00
  41:  0.00  42:  0.00  43:  0.00  44:  0.00  45:  0.00  46:  0.00  47:  0.00  48:  0.00
  49:  0.00  50:  0.00  51:  0.00  52:  0.00  53:  0.00  54:  0.00  55:  0.00  56:  0.00
  57:  0.00  58:  0.00  59:  0.00  60:  0.00  61:  0.00  62:  0.00  63:  0.00  64:  0.00
  65:  0.00  66:  0.00  67:  0.00  68:  0.00  69:  0.00  70:  0.00  71:  0.00  72:  0.00
  73:  0.00  74:  0.00  75:  0.00  76:  0.00  77:  0.00  78:  0.00  79:  0.00  80:  0.00
  81:  0.00  82:  0.00  83:  0.00  84:  0.00  85:  0.00  86:  0.00  87:  0.00  88:  0.00
  89:  0.00  90:  0.00  91:  0.00  92:  0.00  93:  0.00  94:  0.00  95:  0.00  96:  0.00
  97:  0.00  98:  0.00  99:  0.00 100:  0.00 101:  0.00 102:  0.00 103:  0.00 104:  0.00
 105:  0.00 106:  0.00 107:  0.00 108:  0.00 109:  0.00 110:  0.00 111:  0.00 112:  0.00
 113:  0.00 114:  0.00 115:  0.00 116:  0.00 117:  0.00 118:  0.00 119:  0.00 120:  0.00
 121:  0.00 122:  0.00 123:  0.00 124:  0.00 125:  0.00 126:  0.00 127:  0.00 128:  0.00
 129:  0.00 130:  0.00 131:  0.00 132:  0.00 133:  0.00 134:  0.00 135:  0.00 136:  0.00
 137:  0.00 138:  0.00 139:  0.00 140:  0.00 141:  0.00 142:  0.00 143:  0.00 144:  0.00
 145:  0.00 146:  0.00 147:  0.00 148:  0.00 149:  0.00 150:  0.00 151:  0.00 152:  0.00
 153:  0.00 154:  0.00 155:  0.00 156:  0.00 157:  0.00 158:  0.00 159:  0.00
 output can be read by thermo (or use thermo option).
 writing <g98.out> molden fake output.
 recommended (thermochemical) frequency scaling factor: 1.0
           -------------------------------------------------
          |             Thermodynamic Functions             |
           -------------------------------------------------

c1  symmetry found (for desy threshold:  0.10E+00) used in thermo

          ...................................................
          :                      SETUP                      :
          :.................................................:
          :  # frequencies                         153      :
          :  # imaginary freq.                       0      :
          :  linear?                             false      :
          :  only rotor calc.                    false      :
          :  symmetry                               c1      :
          :  rotational number                       1      :
          :  scaling factor                  1.0000000      :
          :  rotor cutoff                   50.0000000 cm⁻¹ :
          :  imag. cutoff                  -20.0000000 cm⁻¹ :
          :.................................................:

    mode    ω/cm⁻¹     T·S(HO)/kcal·mol⁻¹    T·S(FR)/kcal·mol⁻¹   T·S(vib)
   ------------------------------------------------------------------------
       1     15.18    -2.14137 (  0.84%)    -1.40962 ( 99.16%)    -1.41578
       2     23.51    -1.88224 (  4.66%)    -1.28000 ( 95.34%)    -1.30807
       3     26.76    -1.80554 (  7.59%)    -1.24162 ( 92.41%)    -1.28441
       4     37.26    -1.60984 ( 23.58%)    -1.14359 ( 76.42%)    -1.25353
       5     42.44    -1.53306 ( 34.17%)    -1.10509 ( 65.83%)    -1.25131
       6     43.85    -1.51373 ( 37.17%)    -1.09539 ( 62.83%)    -1.25088
       7     48.39    -1.45562 ( 46.73%)    -1.06622 ( 53.27%)    -1.24818
       8     52.96    -1.40244 ( 55.72%)    -1.03950 ( 44.28%)    -1.24173
       9     55.49    -1.37489 ( 60.27%)    -1.02565 ( 39.73%)    -1.23615
      10     62.67    -1.30330 ( 71.16%)    -0.98962 ( 28.84%)    -1.21285
      11     66.87    -1.26518 ( 76.19%)    -0.97040 ( 23.81%)    -1.19498
      12     76.00    -1.19011 ( 84.22%)    -0.93249 ( 15.78%)    -1.14946
      13     79.05    -1.16704 ( 86.20%)    -0.92083 ( 13.80%)    -1.13307
      14     94.11    -1.06524 ( 92.62%)    -0.86918 (  7.38%)    -1.05077
      15     98.67    -1.03766 ( 93.81%)    -0.85515 (  6.19%)    -1.02638
      16    106.28    -0.99453 ( 95.33%)    -0.83314 (  4.67%)    -0.98699
      17    112.11    -0.96363 ( 96.19%)    -0.81733 (  3.81%)    -0.95806
      18    116.31    -0.94236 ( 96.70%)    -0.80643 (  3.30%)    -0.93788
      19    123.85    -0.90617 ( 97.41%)    -0.78782 (  2.59%)    -0.90311
      20    126.68    -0.89322 ( 97.63%)    -0.78114 (  2.37%)    -0.89057
      21    141.77    -0.82881 ( 98.48%)    -0.74780 (  1.52%)    -0.82758
      22    148.23    -0.80347 ( 98.72%)    -0.73460 (  1.28%)    -0.80259
      23    175.67    -0.70779 ( 99.35%)    -0.68429 (  0.65%)    -0.70763
      24    183.60    -0.68322 ( 99.45%)    -0.67121 (  0.55%)    -0.68315
      25    186.21    -0.67538 ( 99.48%)    -0.66703 (  0.52%)    -0.67534
      26    224.02    -0.57434 ( 99.75%)    -0.61226 (  0.25%)    -0.57444
      27    226.01    -0.56958 ( 99.76%)    -0.60964 (  0.24%)    -0.56968
      28    236.66    -0.54496 ( 99.80%)    -0.59600 (  0.20%)    -0.54507
      29    258.25    -0.49897 ( 99.86%)    -0.57014 (  0.14%)    -0.49907
      30    267.75    -0.48022 ( 99.88%)    -0.55944 (  0.12%)    -0.48032
      31    284.58    -0.44901 ( 99.90%)    -0.54138 (  0.10%)    -0.44910
      32    297.95    -0.42588 ( 99.92%)    -0.52778 (  0.08%)    -0.42596
   ------------------------------------------------------------------------

   temp. (K)  partition function   enthalpy   heat capacity  entropy
                                   cal/mol     cal/K/mol   cal/K/mol   J/K/mol
 298.15  VIB  0.811E+16            19185.097    104.833    125.359
         ROT  0.111E+08              888.752      2.981     35.220
         INT  0.901E+23            20073.850    107.814    160.578
         TR   0.618E+28             1481.254      4.968     43.384
         TOT                       21555.1036   112.7817   203.9628   853.3805

       T/K    H(0)-H(T)+PV         H(T)/Eh          T*S/Eh         G(T)/Eh
   ------------------------------------------------------------------------
    298.15    0.343502E-01    0.473816E+00    0.969093E-01    0.376907E+00
   ------------------------------------------------------------------------

         :::::::::::::::::::::::::::::::::::::::::::::::::::::
         ::                  THERMODYNAMIC                  ::
         :::::::::::::::::::::::::::::::::::::::::::::::::::::
         :: total free energy         -80.560108559615 Eh   ::
         ::.................................................::
         :: total energy              -80.937015657976 Eh   ::
         :: zero point energy           0.439466178211 Eh   ::
         :: G(RRHO) w/o ZPVE           -0.062559079850 Eh   ::
         :: G(RRHO) contrib.            0.376907098361 Eh   ::
         :::::::::::::::::::::::::::::::::::::::::::::::::::::

           -------------------------------------------------
          | TOTAL ENERGY              -80.937015657976 Eh   |
          | TOTAL ENTHALPY            -80.463199235738 Eh   |
          | TOTAL FREE ENERGY         -80.560108559615 Eh   |
          | GRADIENT NORM               0.000050410260 Eh/α |
          | HOMO-LUMO GAP               5.649154126956 eV   |
           -------------------------------------------------

------------------------------------------------------------------------
 * finished run on 2024/01/10 at 18:23:59.400     
------------------------------------------------------------------------
 total:
 * wall-time:     0 d,  0 h,  0 min, 14.809 sec
 *  cpu-time:     0 d,  0 h,  0 min, 14.741 sec
 * ratio c/w:     0.995 speedup
 SCF:
 * wall-time:     0 d,  0 h,  0 min,  0.087 sec
 *  cpu-time:     0 d,  0 h,  0 min,  0.059 sec
 * ratio c/w:     0.675 speedup
 analytical hessian:
 * wall-time:     0 d,  0 h,  0 min, 14.695 sec
 *  cpu-time:     0 d,  0 h,  0 min, 14.656 sec
 * ratio c/w:     0.997 speedup

