 Entering Gaussian System
 *********************************************
 Gaussian 98:
 frequency output generated by the xtb code
 *********************************************
                         Standard orientation:
 --------------------------------------------------------------------
  Center     Atomic     Atomic              Coordinates (Angstroms)
  Number     Number      Type              X           Y           Z
 --------------------------------------------------------------------
    1          8             0        0.486388   -0.480958    2.730273
    2          6             0       -0.567623   -0.364810    1.818405
    3          1             0       -1.439673   -0.830566    2.283086
    4          1             0       -0.804160    0.690300    1.647395
    5          6             0       -0.258189   -0.967156    0.441650
    6          1             0        0.755042   -0.664152    0.162398
    7          1             0       -0.970189   -0.571828   -0.282275
    8          7             0       -0.310044   -2.452382    0.354056
    9          6             0        0.657087   -3.046937    1.289620
   10          1             0        1.655852   -2.724122    0.996800
   11          1             0        0.597430   -4.132456    1.248923
   12          1             0        0.462852   -2.703787    2.302769
   13          6             0        0.060857   -2.830726   -1.020567
   14          1             0        1.059537   -2.453690   -1.235327
   15          1             0       -0.656638   -2.404638   -1.717855
   16          1             0        0.057734   -3.914270   -1.119882
   17          6             0       -1.667955   -2.949237    0.620779
   18          1             0       -1.954325   -2.751091    1.650016
   19          1             0       -1.704269   -4.024457    0.454945
   20          1             0       -2.366599   -2.459025   -0.056343
   21          1             0        1.184928    0.122190    2.427593
   22          6             0        3.878856   -1.062386   -0.283809
   23          8             0        2.781325   -1.592016   -0.415648
   24          7             0        4.058008    0.055368    0.447925
   25          1             0        3.238385    0.555037    0.783783
   26          1             0        4.941161    0.532241    0.445439
   27          7             0        4.991760   -1.577885   -0.871663
   28          1             0        5.910118   -1.242437   -0.644612
   29          1             0        4.919858   -2.479123   -1.309275
   30          6             0        1.671697    2.749523    1.118325
   31          8             0        1.780635    1.537198    1.286418
   32          7             0        2.717691    3.587503    1.355091
   33          1             0        3.512626    3.217567    1.846676
   34          1             0        2.590787    4.583592    1.375885
   35          7             0        0.534254    3.330623    0.692763
   36          1             0        0.533001    4.302177    0.437398
   37          1             0       -0.231206    2.760470    0.341009
   38          6             0       -2.360075   -0.399977   -2.811889
   39          8             0       -2.644380   -1.007671   -1.774110
   40          7             0       -2.460521   -1.003704   -4.022045
   41          1             0       -2.929596   -1.891247   -4.069673
   42          1             0       -2.359763   -0.484340   -4.875341
   43          7             0       -1.884439    0.852672   -2.791595
   44          1             0       -1.655675    1.343361   -3.636035
   45          1             0       -1.777893    1.331568   -1.895453
   46          6             0       -2.870414    1.818192    0.405713
   47          8             0       -1.838651    2.026504   -0.241250
   48          7             0       -3.297441    2.696648    1.341086
   49          1             0       -2.783687    3.547673    1.481168
   50          1             0       -4.143053    2.556605    1.862249
   51          7             0       -3.591600    0.696889    0.248588
   52          1             0       -4.477662    0.577792    0.704047
   53          1             0       -3.319947    0.035747   -0.481626
 --------------------------------------------------------------------
     1 basis functions        1 primitive gaussians
     1 alpha electrons        1 beta electrons

 Harmonic frequencies (cm**-1), IR intensities (km*mol⁻¹),
 Raman scattering activities (A**4/amu), Raman depolarization ratios,
 reduced masses (AMU), force constants (mDyne/A) and normal coordinates:
                      1                      2                      3
                        a                      a                      a 
 Frequencies --    15.7426                17.0277                30.1222
 Red. masses --    12.4277                11.9196                12.3572
 Frc consts  --     0.0000                 0.0000                 0.0000
 IR Inten    --     0.1938                 0.0145                 2.5265
 Raman Activ --     0.0000                 0.0000                 0.0000
 Depolar     --     0.0000                 0.0000                 0.0000
 Atom AN      X      Y      Z        X      Y      Z        X      Y      Z
   1   8    -0.11  -0.05   0.05    -0.02  -0.08  -0.03     0.21   0.06  -0.10
   2   6    -0.06  -0.03   0.01    -0.01  -0.05  -0.03     0.13   0.04  -0.02
   3   1    -0.02  -0.01  -0.01    -0.00  -0.02  -0.02     0.04   0.02   0.01
   4   1    -0.01  -0.01   0.00    -0.01  -0.01   0.00     0.04   0.01  -0.01
   5   6    -0.02  -0.02   0.01     0.02   0.03  -0.06     0.04  -0.00  -0.02
   6   1    -0.01   0.00   0.01     0.00   0.02  -0.01     0.01  -0.02  -0.02
   7   1    -0.01  -0.01   0.00     0.01   0.01  -0.01     0.01   0.01  -0.00
   8   7     0.01  -0.02   0.01     0.06   0.03  -0.14    -0.05  -0.00   0.02
   9   6     0.04   0.00  -0.00     0.04   0.00  -0.14    -0.09  -0.04   0.04
  10   1     0.01   0.01  -0.01     0.01   0.01  -0.03    -0.02  -0.02   0.02
  11   1     0.02  -0.00   0.00     0.02   0.00  -0.06    -0.04  -0.01   0.01
  12   1     0.01   0.00  -0.00     0.00  -0.01  -0.04    -0.03  -0.01   0.01
  13   6    -0.01  -0.01   0.01     0.09   0.10  -0.14    -0.05  -0.06   0.03
  14   1    -0.01   0.01  -0.00     0.03   0.04  -0.03    -0.01  -0.04   0.01
  15   1    -0.01  -0.01   0.01     0.03   0.04  -0.04    -0.00  -0.01   0.00
  16   1     0.01  -0.00   0.00     0.03   0.03  -0.06    -0.03  -0.02   0.01
  17   6     0.02  -0.05   0.03     0.06  -0.01  -0.18    -0.08   0.08   0.01
  18   1     0.01  -0.02   0.01     0.01  -0.02  -0.05    -0.03   0.05  -0.00
  19   1     0.01  -0.01   0.00     0.02  -0.00  -0.07    -0.04   0.02   0.02
  20   1    -0.00  -0.01   0.02     0.02   0.00  -0.05    -0.01   0.02  -0.01
  21   1    -0.02  -0.01   0.02    -0.01  -0.01   0.00     0.05   0.02  -0.04
  22   6    -0.05   0.10  -0.12     0.09   0.02   0.20    -0.03  -0.08   0.02
  23   8    -0.04   0.08  -0.08     0.10   0.09   0.03    -0.03  -0.13   0.11
  24   7    -0.03   0.05  -0.04     0.05  -0.02   0.30    -0.05   0.08  -0.24
  25   1    -0.01  -0.00   0.01     0.01  -0.00   0.06    -0.01   0.03  -0.08
  26   1    -0.02   0.03  -0.03     0.02  -0.02   0.12    -0.01   0.02  -0.08
  27   7    -0.08   0.22  -0.28     0.16   0.01   0.34    -0.02  -0.22   0.16
  28   1    -0.02   0.06  -0.09     0.04  -0.01   0.13    -0.01  -0.04   0.02
  29   1    -0.02   0.07  -0.09     0.05   0.01   0.07    -0.00  -0.08   0.09
  30   6    -0.00  -0.03   0.20     0.01  -0.01  -0.05    -0.08   0.15   0.07
  31   8    -0.02  -0.04   0.18    -0.02   0.00   0.06     0.01   0.15  -0.15
  32   7    -0.04  -0.04   0.39     0.02  -0.01  -0.09    -0.18   0.21   0.30
  33   1    -0.03  -0.02   0.13    -0.00   0.00  -0.01    -0.04   0.05   0.07
  34   1    -0.01  -0.01   0.12     0.01  -0.00  -0.05    -0.07   0.05   0.13
  35   7     0.04  -0.01   0.11     0.03  -0.02  -0.13    -0.12   0.14   0.12
  36   1     0.02  -0.00   0.04     0.02  -0.01  -0.06    -0.05   0.05   0.07
  37   1     0.03  -0.00  -0.01     0.01  -0.01  -0.03    -0.01   0.03  -0.01
  38   6    -0.05  -0.14   0.02    -0.24  -0.04   0.00    -0.05  -0.01  -0.10
  39   8    -0.08  -0.07   0.07    -0.17  -0.02   0.05     0.03  -0.02  -0.09
  40   7    -0.13  -0.23   0.06    -0.41  -0.06   0.02    -0.10  -0.01  -0.10
  41   1    -0.06  -0.05   0.04    -0.12  -0.01   0.03    -0.02  -0.01  -0.02
  42   1    -0.03  -0.08   0.01    -0.13  -0.02   0.00    -0.04  -0.00  -0.03
  43   7     0.04  -0.19  -0.08    -0.23  -0.05  -0.07    -0.12   0.02  -0.13
  44   1     0.01  -0.07  -0.03    -0.09  -0.02  -0.03    -0.04   0.00  -0.04
  45   1     0.02  -0.04  -0.03    -0.04  -0.01  -0.02    -0.01   0.00  -0.04
  46   6     0.14   0.11  -0.13     0.08   0.02   0.01     0.15  -0.08   0.00
  47   8     0.17  -0.01  -0.17     0.04  -0.03  -0.09     0.08  -0.02  -0.12
  48   7     0.23   0.20  -0.18     0.21   0.04   0.05     0.28  -0.18   0.15
  49   1     0.08   0.05  -0.07     0.07   0.01  -0.00     0.07  -0.04   0.03
  50   1     0.06   0.08  -0.05     0.06   0.02   0.03     0.08  -0.05   0.05
  51   7     0.05   0.17  -0.07     0.03   0.05   0.08     0.15  -0.08   0.00
  52   1     0.02   0.07  -0.01     0.02   0.02   0.05     0.06  -0.04   0.03
  53   1     0.00   0.02  -0.00    -0.01   0.01   0.02     0.02  -0.01  -0.02
                      4                      5                      6
                        a                      a                      a 
 Frequencies --    31.9141                36.6518                41.3006
 Red. masses --    12.4818                12.3468                12.7743
 Frc consts  --     0.0000                 0.0000                 0.0000
 IR Inten    --     0.6838                 3.1886                 0.0558
 Raman Activ --     0.0000                 0.0000                 0.0000
 Depolar     --     0.0000                 0.0000                 0.0000
 Atom AN      X      Y      Z        X      Y      Z        X      Y      Z
   1   8     0.05   0.05  -0.16    -0.03   0.12   0.11    -0.25  -0.00   0.05
   2   6     0.03  -0.03  -0.13     0.01   0.12   0.06    -0.13  -0.04  -0.07
   3   1     0.01  -0.01  -0.03    -0.01   0.04   0.01    -0.05  -0.01  -0.04
   4   1    -0.00  -0.01  -0.05     0.01   0.04   0.01    -0.03  -0.01  -0.04
   5   6     0.04  -0.06  -0.11     0.04   0.10   0.07     0.01  -0.09  -0.01
   6   1     0.01  -0.01  -0.04     0.01   0.03   0.03     0.01  -0.03   0.02
   7   1     0.01  -0.03  -0.03     0.02   0.03   0.01     0.02  -0.04  -0.03
   8   7     0.08  -0.07  -0.08     0.05   0.11   0.10     0.04  -0.11   0.04
   9   6     0.07  -0.02  -0.05     0.05   0.11   0.09    -0.01  -0.05   0.13
  10   1     0.02  -0.01  -0.01     0.01   0.03   0.02     0.00  -0.02   0.05
  11   1     0.03  -0.01  -0.00     0.01   0.03   0.03    -0.00  -0.02   0.05
  12   1     0.02   0.00  -0.02     0.02   0.04   0.02    -0.02  -0.00   0.03
  13   6     0.10  -0.09  -0.06     0.03   0.09   0.09     0.13  -0.14   0.08
  14   1     0.03  -0.03  -0.01     0.01   0.02   0.02     0.04  -0.04   0.04
  15   1     0.03  -0.03  -0.02     0.00   0.02   0.03     0.05  -0.04   0.00
  16   1     0.03  -0.03  -0.01     0.01   0.03   0.03     0.04  -0.04   0.03
  17   6     0.08  -0.08  -0.08     0.05   0.10   0.11     0.03  -0.11  -0.03
  18   1     0.02  -0.02  -0.02     0.01   0.04   0.03    -0.01  -0.03  -0.01
  19   1     0.03  -0.02  -0.02     0.02   0.03   0.04     0.01  -0.03  -0.01
  20   1     0.02  -0.02  -0.02     0.01   0.02   0.03     0.02  -0.03  -0.02
  21   1     0.01   0.01  -0.05     0.01   0.01   0.02    -0.05  -0.01   0.02
  22   6     0.11  -0.10  -0.01     0.11  -0.06  -0.03     0.05   0.02   0.02
  23   8     0.14  -0.15  -0.02     0.12  -0.06   0.03     0.14  -0.20   0.23
  24   7     0.04  -0.00  -0.16     0.18  -0.08  -0.02    -0.06   0.14  -0.13
  25   1     0.01   0.00  -0.07     0.05  -0.02   0.01    -0.03   0.01  -0.03
  26   1     0.01  -0.00  -0.04     0.05  -0.02  -0.02    -0.04   0.09  -0.09
  27   7     0.17  -0.19   0.17     0.08  -0.07  -0.12     0.07   0.17  -0.08
  28   1     0.04  -0.04   0.05     0.03  -0.02  -0.04     0.01   0.09  -0.05
  29   1     0.06  -0.07   0.07     0.01  -0.02  -0.03     0.05   0.02   0.02
  30   6    -0.05   0.02   0.03     0.07  -0.10   0.08    -0.05  -0.09  -0.07
  31   8     0.00  -0.01  -0.22     0.17  -0.11   0.04    -0.21  -0.12  -0.11
  32   7    -0.09   0.02   0.19     0.01  -0.04   0.17     0.03  -0.21  -0.01
  33   1    -0.01  -0.01   0.02     0.01  -0.00   0.05    -0.01  -0.08   0.01
  34   1    -0.03   0.00   0.10    -0.01  -0.01   0.05     0.03  -0.05   0.01
  35   7    -0.09   0.06   0.18     0.06  -0.16   0.07     0.03   0.04  -0.12
  36   1    -0.04   0.03   0.10    -0.00  -0.04   0.03     0.04   0.01  -0.02
  37   1    -0.02   0.02   0.03     0.02  -0.05   0.01    -0.01   0.04  -0.04
  38   6    -0.03  -0.01   0.14    -0.12   0.05  -0.10    -0.00   0.08  -0.00
  39   8    -0.08   0.02   0.17     0.13  -0.05  -0.11     0.20   0.07   0.04
  40   7    -0.05  -0.03   0.16    -0.32   0.15  -0.14     0.04   0.03   0.02
  41   1    -0.03   0.00   0.04    -0.05   0.02  -0.03     0.05  -0.01   0.02
  42   1    -0.00  -0.01   0.04    -0.13   0.05  -0.03    -0.04   0.01   0.00
  43   7     0.07  -0.05   0.14    -0.27   0.11  -0.11    -0.29   0.20  -0.08
  44   1     0.02  -0.02   0.03    -0.12   0.05  -0.03    -0.10   0.05  -0.03
  45   1     0.01  -0.00   0.03    -0.04   0.01  -0.02    -0.06   0.06  -0.02
  46   6    -0.14   0.16  -0.02    -0.08  -0.08  -0.09     0.05   0.10   0.02
  47   8    -0.09   0.13   0.06    -0.04  -0.08  -0.01    -0.06   0.26  -0.12
  48   7    -0.28   0.30  -0.20    -0.27  -0.02  -0.25     0.08   0.03   0.11
  49   1    -0.07   0.08  -0.06    -0.08  -0.00  -0.06    -0.01   0.03   0.00
  50   1    -0.08   0.08  -0.05    -0.07  -0.02  -0.07     0.04  -0.01   0.05
  51   7    -0.10   0.13   0.07     0.03  -0.18  -0.04     0.16   0.03   0.08
  52   1    -0.04   0.05  -0.01    -0.01  -0.04  -0.05     0.07  -0.03   0.06
  53   1    -0.01   0.02   0.04     0.02  -0.04  -0.01     0.05   0.01   0.02
                      7                      8                      9
                        a                      a                      a 
 Frequencies --    45.8985                47.5781                57.4460
 Red. masses --    12.4067                12.3935                12.4903
 Frc consts  --     0.0000                 0.0000                 0.0000
 IR Inten    --     2.9351                 4.9956                 4.1292
 Raman Activ --     0.0000                 0.0000                 0.0000
 Depolar     --     0.0000                 0.0000                 0.0000
 Atom AN      X      Y      Z        X      Y      Z        X      Y      Z
   1   8    -0.05   0.11   0.02     0.05  -0.03  -0.12    -0.23   0.21  -0.07
   2   6    -0.05   0.09   0.03     0.07  -0.01  -0.13    -0.12   0.13  -0.17
   3   1    -0.01   0.02   0.01     0.01   0.02  -0.03    -0.05   0.06  -0.06
   4   1    -0.02   0.03   0.02     0.04  -0.00  -0.06    -0.02   0.03  -0.08
   5   6    -0.05   0.14   0.01     0.05  -0.11  -0.09    -0.02   0.01  -0.09
   6   1    -0.02   0.06   0.00     0.01  -0.04  -0.04    -0.01   0.01  -0.03
   7   1    -0.02   0.04   0.01     0.01  -0.04  -0.03    -0.01  -0.03  -0.04
   8   7     0.00   0.15  -0.02     0.03  -0.13   0.01     0.06  -0.00   0.06
   9   6     0.05   0.15  -0.07     0.11  -0.06  -0.04     0.14   0.14   0.06
  10   1     0.01   0.05  -0.03     0.02  -0.02  -0.04     0.03   0.04  -0.02
  11   1     0.02   0.04  -0.02     0.03  -0.02   0.01     0.05   0.04   0.06
  12   1     0.03   0.04  -0.02     0.06   0.00  -0.01     0.06   0.08   0.01
  13   6    -0.02   0.18  -0.04    -0.10  -0.20  -0.00    -0.01  -0.11   0.07
  14   1    -0.01   0.06  -0.02    -0.04  -0.05  -0.04    -0.01  -0.02  -0.01
  15   1    -0.02   0.05  -0.00    -0.05  -0.08   0.01    -0.02  -0.06   0.02
  16   1     0.00   0.05  -0.02    -0.02  -0.06   0.02     0.02  -0.03   0.05
  17   6     0.03   0.08   0.01     0.05  -0.10   0.16     0.10  -0.05   0.18
  18   1     0.02   0.01   0.01     0.05  -0.02   0.05     0.05  -0.01   0.06
  19   1     0.02   0.03  -0.01     0.01  -0.03   0.05     0.04  -0.02   0.06
  20   1    -0.00   0.02   0.01    -0.00  -0.03   0.06     0.01  -0.03   0.06
  21   1    -0.01   0.01  -0.01     0.01   0.01  -0.01    -0.05   0.04  -0.02
  22   6     0.08  -0.06  -0.05    -0.12  -0.02  -0.01     0.01  -0.05  -0.04
  23   8     0.05   0.03  -0.17    -0.18   0.13  -0.29     0.01  -0.00  -0.25
  24   7     0.11  -0.13   0.04    -0.11  -0.19   0.25    -0.02  -0.18   0.17
  25   1     0.03  -0.02  -0.00    -0.02  -0.03   0.05    -0.01  -0.04   0.02
  26   1     0.04  -0.05   0.03    -0.01  -0.08   0.13    -0.00  -0.05   0.07
  27   7     0.09  -0.12   0.00    -0.10  -0.04   0.07     0.06  -0.00   0.00
  28   1     0.03  -0.05   0.02    -0.03  -0.04   0.06     0.01  -0.02   0.04
  29   1     0.01  -0.02  -0.02    -0.04   0.02  -0.04     0.02   0.02  -0.04
  30   6    -0.02  -0.10   0.00     0.03   0.11   0.05    -0.04  -0.01  -0.03
  31   8     0.03  -0.13  -0.14     0.04   0.14   0.13    -0.07  -0.03  -0.15
  32   7    -0.08  -0.09   0.14     0.01   0.14   0.08    -0.05  -0.05   0.13
  33   1    -0.02  -0.03   0.03    -0.00   0.05   0.04    -0.02  -0.03   0.03
  34   1    -0.03  -0.02   0.06     0.00   0.04   0.00    -0.01  -0.01   0.05
  35   7    -0.04  -0.12   0.03     0.06   0.08  -0.06    -0.01   0.04  -0.05
  36   1    -0.02  -0.02   0.04     0.02   0.02  -0.03     0.00   0.02   0.02
  37   1    -0.00  -0.03  -0.01     0.02   0.02  -0.02    -0.01   0.02  -0.03
  38   6     0.01  -0.06   0.01     0.01   0.03   0.01     0.04   0.01  -0.00
  39   8    -0.08   0.02   0.05     0.19  -0.02   0.03     0.05  -0.02  -0.02
  40   7     0.43  -0.29   0.08     0.14  -0.03   0.02    -0.26   0.15  -0.04
  41   1     0.14  -0.09   0.03     0.08  -0.03   0.01    -0.09   0.05  -0.01
  42   1     0.10  -0.09   0.01    -0.01  -0.00   0.00    -0.04   0.04  -0.00
  43   7    -0.33   0.06  -0.07    -0.34   0.16  -0.04     0.35  -0.11   0.05
  44   1    -0.03  -0.02  -0.02    -0.09   0.04  -0.01     0.04  -0.00   0.01
  45   1    -0.10   0.03  -0.03    -0.06   0.04  -0.01     0.06  -0.02   0.01
  46   6    -0.05   0.02   0.02     0.02   0.04  -0.01    -0.00  -0.01   0.02
  47   8    -0.11   0.05  -0.07    -0.00   0.12  -0.03    -0.09   0.14  -0.05
  48   7     0.13  -0.09   0.21    -0.11   0.10  -0.13     0.11  -0.21   0.27
  49   1     0.02  -0.01   0.03    -0.05   0.04  -0.04    -0.00  -0.03   0.06
  50   1     0.02  -0.00   0.03    -0.01  -0.00  -0.01     0.01  -0.06   0.04
  51   7    -0.15   0.10  -0.06     0.18  -0.08   0.12    -0.01   0.02  -0.10
  52   1    -0.02   0.01   0.02     0.04  -0.03   0.02     0.03  -0.04   0.02
  53   1    -0.05   0.03  -0.02     0.05  -0.01   0.03     0.00   0.01  -0.03
                     10                     11                     12
                        a                      a                      a 
 Frequencies --    62.1867                63.4426                70.6475
 Red. masses --    12.0965                12.3193                13.0832
 Frc consts  --     0.0000                 0.0000                 0.0000
 IR Inten    --     3.7654                 1.8839                 2.8705
 Raman Activ --     0.0000                 0.0000                 0.0000
 Depolar     --     0.0000                 0.0000                 0.0000
 Atom AN      X      Y      Z        X      Y      Z        X      Y      Z
   1   8     0.17  -0.12   0.17     0.01  -0.01  -0.00    -0.28  -0.02   0.07
   2   6     0.03  -0.11   0.28    -0.02  -0.08   0.02    -0.13   0.03  -0.06
   3   1     0.04  -0.06   0.10     0.00  -0.03   0.01    -0.06   0.02  -0.05
   4   1    -0.02  -0.03   0.12    -0.02  -0.03   0.00    -0.02   0.01  -0.02
   5   6    -0.07   0.03   0.20    -0.02  -0.10   0.03    -0.02   0.02  -0.03
   6   1    -0.03   0.04   0.04    -0.01  -0.01  -0.00    -0.00   0.01   0.01
   7   1    -0.05   0.01   0.09    -0.02  -0.04   0.01     0.00  -0.00  -0.02
   8   7     0.01   0.04   0.08     0.06  -0.11   0.07     0.03   0.02  -0.02
   9   6     0.15   0.00  -0.10     0.11  -0.03   0.04     0.10   0.07  -0.06
  10   1     0.03   0.02  -0.06     0.03   0.00   0.00     0.02   0.02  -0.04
  11   1     0.05   0.00  -0.05     0.05  -0.01   0.02     0.03   0.02  -0.01
  12   1     0.08  -0.02  -0.01     0.04  -0.00   0.01     0.04   0.03  -0.02
  13   6    -0.13   0.19  -0.01     0.03  -0.11   0.06    -0.02   0.03  -0.04
  14   1    -0.05   0.07  -0.03     0.00  -0.02   0.01    -0.02   0.03  -0.03
  15   1    -0.07   0.06   0.03    -0.00  -0.04   0.02    -0.02  -0.01  -0.00
  16   1    -0.02   0.06  -0.03     0.02  -0.03   0.02     0.02   0.01  -0.01
  17   6     0.07  -0.07   0.17     0.09  -0.16   0.11     0.07  -0.04   0.05
  18   1     0.05  -0.05   0.06     0.03  -0.05   0.04     0.04  -0.03   0.02
  19   1     0.03  -0.02   0.03     0.04  -0.05   0.03     0.03  -0.01   0.00
  20   1    -0.01  -0.02   0.08     0.01  -0.05   0.04     0.00  -0.01   0.03
  21   1     0.03  -0.02   0.02    -0.01   0.01  -0.00    -0.05  -0.01   0.05
  22   6    -0.03   0.02  -0.04    -0.00   0.01  -0.00    -0.04   0.06  -0.08
  23   8    -0.03   0.05  -0.24    -0.01   0.04  -0.02    -0.08   0.15  -0.13
  24   7    -0.14   0.04  -0.05     0.00   0.05  -0.07    -0.07   0.30  -0.47
  25   1    -0.05   0.01  -0.05     0.00   0.02  -0.01    -0.01   0.07  -0.09
  26   1    -0.03   0.01   0.03     0.01   0.00  -0.00     0.01   0.03  -0.06
  27   7     0.06  -0.04   0.19     0.01  -0.05   0.07     0.01  -0.27   0.32
  28   1     0.01  -0.01   0.08     0.00  -0.01   0.02     0.00  -0.06   0.06
  29   1     0.03  -0.01   0.04    -0.00  -0.02   0.02    -0.01  -0.09   0.12
  30   6    -0.15  -0.08  -0.08     0.01   0.03   0.05     0.09  -0.02   0.07
  31   8    -0.28  -0.12  -0.23     0.05   0.04   0.08     0.05  -0.00   0.33
  32   7    -0.07  -0.21  -0.04     0.08   0.03  -0.25     0.10  -0.02   0.06
  33   1    -0.02  -0.09  -0.03     0.05   0.02  -0.11     0.00   0.01   0.06
  34   1     0.01  -0.05   0.02     0.02   0.01  -0.07     0.03  -0.00  -0.04
  35   7    -0.13   0.06   0.04    -0.10   0.02   0.34     0.18  -0.07  -0.18
  36   1    -0.01   0.02   0.03    -0.03  -0.00   0.06     0.06  -0.03  -0.08
  37   1    -0.04   0.03  -0.01    -0.03  -0.00   0.09     0.04  -0.02  -0.02
  38   6     0.06   0.05  -0.04    -0.03   0.04  -0.03     0.01  -0.02   0.01
  39   8     0.13   0.06  -0.02     0.13  -0.00  -0.01     0.00  -0.04   0.00
  40   7    -0.05   0.07  -0.04    -0.08   0.06  -0.03     0.02   0.00   0.00
  41   1    -0.01   0.02  -0.00     0.00   0.00  -0.00     0.01   0.00  -0.00
  42   1    -0.02   0.02  -0.01    -0.06   0.02  -0.01     0.01   0.00   0.00
  43   7     0.09   0.04  -0.07    -0.20   0.11  -0.05     0.01  -0.02   0.04
  44   1     0.01   0.01  -0.02    -0.07   0.03  -0.02     0.00  -0.00   0.01
  45   1     0.04   0.01  -0.02    -0.02   0.01  -0.01    -0.00  -0.01   0.01
  46   6     0.07   0.03  -0.05    -0.02   0.05  -0.09    -0.00  -0.03   0.03
  47   8     0.07   0.03  -0.08     0.10  -0.07   0.05    -0.01  -0.01   0.03
  48   7     0.01   0.10  -0.15     0.13  -0.05   0.08    -0.03  -0.05   0.03
  49   1     0.00   0.03  -0.05     0.06  -0.03   0.05    -0.01  -0.01   0.01
  50   1     0.02   0.02  -0.02    -0.02   0.04  -0.05    -0.01  -0.02   0.01
  51   7     0.15  -0.04   0.05    -0.31   0.30  -0.45     0.02  -0.05   0.03
  52   1     0.03  -0.00  -0.00    -0.07   0.08  -0.10     0.01  -0.02   0.01
  53   1     0.04  -0.00   0.01    -0.05   0.05  -0.08     0.01  -0.01   0.01
                     13                     14                     15
                        a                      a                      a 
 Frequencies --    73.7256                81.9425                91.9213
 Red. masses --    12.4598                12.9333                12.7693
 Frc consts  --     0.0000                 0.0000                 0.0000
 IR Inten    --     4.0076                 6.3332                 7.3110
 Raman Activ --     0.0000                 0.0000                 0.0000
 Depolar     --     0.0000                 0.0000                 0.0000
 Atom AN      X      Y      Z        X      Y      Z        X      Y      Z
   1   8     0.24  -0.10   0.01     0.09   0.07  -0.09     0.02   0.06  -0.11
   2   6     0.12  -0.09   0.11    -0.05  -0.11   0.06     0.02   0.08  -0.10
   3   1     0.05  -0.04   0.05     0.02  -0.07   0.05    -0.00   0.05  -0.02
   4   1     0.02  -0.03   0.05    -0.07  -0.04   0.03     0.03   0.03  -0.04
   5   6     0.02  -0.05   0.07    -0.11  -0.05   0.02    -0.02   0.01  -0.07
   6   1    -0.00  -0.01   0.00    -0.04   0.01  -0.01    -0.01  -0.00  -0.03
   7   1    -0.01  -0.01   0.04    -0.05  -0.03   0.02    -0.01  -0.00  -0.02
   8   7     0.01  -0.05   0.04     0.01  -0.06   0.00    -0.05   0.01   0.01
   9   6     0.03  -0.09  -0.01     0.01   0.00   0.05    -0.04   0.05   0.02
  10   1     0.01  -0.02  -0.00    -0.00   0.05   0.04    -0.01   0.01   0.00
  11   1     0.01  -0.02  -0.01     0.04  -0.00  -0.01    -0.01   0.01   0.02
  12   1     0.02  -0.04   0.00    -0.03  -0.03   0.02    -0.01   0.02   0.00
  13   6    -0.02  -0.01   0.02     0.11  -0.01   0.02    -0.06  -0.07   0.02
  14   1    -0.00  -0.01   0.00     0.03   0.02   0.02    -0.02  -0.02  -0.00
  15   1    -0.01   0.01   0.01     0.04  -0.01  -0.00    -0.02  -0.03   0.00
  16   1    -0.01  -0.00  -0.01     0.05  -0.00  -0.00    -0.02  -0.02   0.02
  17   6     0.01  -0.05   0.05     0.03  -0.17  -0.08    -0.05   0.04   0.06
  18   1     0.01  -0.02   0.02    -0.02  -0.05  -0.03    -0.01   0.04   0.01
  19   1     0.00  -0.01   0.01     0.04  -0.05  -0.02    -0.02   0.01   0.04
  20   1     0.00  -0.01   0.02     0.01  -0.07  -0.04    -0.02   0.00   0.01
  21   1     0.05  -0.01  -0.01     0.01   0.01  -0.08     0.01  -0.00  -0.04
  22   6     0.01  -0.01   0.01    -0.07   0.14   0.08    -0.02   0.11   0.04
  23   8     0.04  -0.08   0.04    -0.25   0.47   0.22    -0.00   0.11  -0.01
  24   7    -0.04   0.01   0.01     0.29   0.10   0.06    -0.06   0.13   0.05
  25   1    -0.02  -0.01  -0.00     0.10   0.07   0.02    -0.03   0.04  -0.02
  26   1    -0.02   0.02  -0.01     0.10  -0.02  -0.02    -0.02   0.05   0.00
  27   7     0.03   0.06  -0.01    -0.28  -0.18  -0.02     0.02   0.14   0.11
  28   1     0.00   0.03  -0.00    -0.04  -0.11  -0.04     0.00   0.04   0.05
  29   1     0.02   0.01   0.01    -0.16  -0.05   0.00     0.02   0.03   0.03
  30   6     0.01   0.02  -0.07     0.06  -0.07  -0.06     0.10  -0.00  -0.04
  31   8    -0.02   0.03  -0.01     0.12  -0.10  -0.27    -0.13  -0.06  -0.30
  32   7    -0.10   0.05   0.32     0.01  -0.06   0.10     0.26  -0.25   0.16
  33   1    -0.07   0.02   0.16     0.01  -0.03   0.01     0.05  -0.14   0.03
  34   1    -0.03   0.01   0.06    -0.01  -0.02   0.06     0.12  -0.06   0.09
  35   7     0.19  -0.04  -0.58     0.05  -0.07  -0.02     0.21   0.26   0.05
  36   1     0.05  -0.00  -0.13    -0.00  -0.01   0.04     0.09   0.08   0.06
  37   1     0.04  -0.01  -0.13     0.01  -0.01  -0.02     0.04   0.10   0.00
  38   6    -0.00   0.06   0.03     0.01  -0.00  -0.00    -0.09  -0.06  -0.00
  39   8     0.03   0.05   0.03     0.06  -0.02   0.00    -0.20  -0.16  -0.09
  40   7    -0.03   0.09   0.02    -0.05   0.02  -0.01     0.08   0.02  -0.06
  41   1    -0.00   0.02   0.00    -0.01   0.00   0.00     0.02   0.01  -0.05
  42   1    -0.01   0.03   0.01    -0.02   0.01  -0.00     0.03   0.03  -0.00
  43   7    -0.02   0.07   0.04     0.03  -0.01  -0.00    -0.19  -0.03   0.13
  44   1    -0.01   0.02   0.01    -0.01   0.00  -0.00     0.01  -0.01   0.05
  45   1    -0.01   0.01   0.01     0.00   0.00  -0.00    -0.02  -0.04   0.05
  46   6    -0.11   0.03  -0.03    -0.02   0.04  -0.02     0.05  -0.10   0.03
  47   8    -0.06  -0.04   0.05    -0.08   0.16  -0.08     0.20  -0.20   0.24
  48   7    -0.03  -0.04   0.08    -0.02  -0.02   0.05    -0.07  -0.06  -0.07
  49   1    -0.00  -0.01   0.02    -0.04   0.02  -0.01     0.01  -0.04   0.03
  50   1    -0.05   0.03  -0.04    -0.01  -0.01   0.00    -0.03  -0.02  -0.03
  51   7    -0.29   0.18  -0.24     0.05  -0.00  -0.00    -0.02  -0.04  -0.09
  52   1    -0.07   0.04  -0.05     0.03  -0.03   0.02    -0.04   0.02  -0.08
  53   1    -0.06   0.03  -0.04     0.02   0.00   0.00    -0.00  -0.01  -0.02
                     16                     17                     18
                        a                      a                      a 
 Frequencies --    98.5331               103.9208               112.8636
 Red. masses --    12.0776                11.4088                12.7256
 Frc consts  --     0.0000                 0.0000                 0.0000
 IR Inten    --     0.6717                 2.1573                 2.8443
 Raman Activ --     0.0000                 0.0000                 0.0000
 Depolar     --     0.0000                 0.0000                 0.0000
 Atom AN      X      Y      Z        X      Y      Z        X      Y      Z
   1   8    -0.16   0.20  -0.03     0.01   0.11   0.03    -0.12   0.06   0.11
   2   6    -0.24  -0.10   0.06    -0.16  -0.14   0.19     0.00   0.05  -0.03
   3   1    -0.03  -0.08   0.04     0.01  -0.12   0.09    -0.01   0.01  -0.04
   4   1    -0.14  -0.04   0.02    -0.14  -0.05   0.09     0.01   0.02  -0.01
   5   6    -0.21  -0.05   0.04    -0.20   0.02   0.11     0.16   0.09  -0.01
   6   1    -0.08   0.03   0.00    -0.07   0.04   0.02     0.06   0.02   0.03
   7   1    -0.09  -0.04   0.02    -0.08   0.00   0.05     0.08   0.04  -0.02
   8   7     0.00  -0.06   0.03    -0.05   0.02  -0.04     0.11   0.10  -0.08
   9   6     0.06   0.08   0.06    -0.01   0.03  -0.06    -0.05   0.02   0.04
  10   1     0.01   0.06   0.02    -0.01   0.04  -0.01     0.00  -0.01   0.05
  11   1     0.06   0.02   0.02     0.02   0.01  -0.04    -0.04   0.01   0.01
  12   1    -0.00   0.02   0.02    -0.02  -0.02  -0.01    -0.04   0.01   0.01
  13   6     0.10   0.00   0.04     0.04   0.20  -0.07     0.24   0.11  -0.04
  14   1     0.02   0.03   0.03     0.01   0.08   0.00     0.08   0.03   0.02
  15   1     0.03  -0.01   0.00     0.01   0.07  -0.01     0.09   0.04  -0.03
  16   1     0.06   0.00   0.01     0.03   0.06  -0.05     0.07   0.03  -0.02
  17   6     0.06  -0.25  -0.02     0.00  -0.16  -0.14     0.05   0.14  -0.26
  18   1    -0.00  -0.09  -0.01    -0.03  -0.07  -0.04    -0.02   0.03  -0.09
  19   1     0.06  -0.07  -0.01     0.04  -0.05  -0.06     0.01   0.04  -0.09
  20   1     0.00  -0.10  -0.01    -0.01  -0.06  -0.05     0.05   0.05  -0.10
  21   1    -0.07   0.07  -0.04    -0.04   0.07  -0.02    -0.02   0.01   0.04
  22   6     0.04  -0.07  -0.03    -0.00  -0.11  -0.03    -0.15  -0.06  -0.04
  23   8     0.05  -0.07  -0.02     0.04  -0.22  -0.02    -0.20  -0.01  -0.08
  24   7     0.06  -0.10   0.00    -0.08  -0.12  -0.01    -0.14  -0.11   0.01
  25   1     0.02  -0.02  -0.00    -0.02  -0.04  -0.00    -0.04  -0.02  -0.01
  26   1     0.02  -0.02  -0.00    -0.03  -0.02  -0.00    -0.03  -0.04   0.01
  27   7     0.03  -0.06  -0.07     0.02  -0.02  -0.07    -0.19  -0.12  -0.03
  28   1     0.01  -0.02  -0.02     0.00   0.01  -0.02    -0.04  -0.04  -0.01
  29   1     0.01  -0.01  -0.02     0.02  -0.01  -0.02    -0.06  -0.02  -0.02
  30   6    -0.04   0.07  -0.06     0.13   0.18   0.05    -0.06   0.02  -0.04
  31   8     0.04   0.09  -0.08     0.03   0.20   0.05    -0.14   0.01  -0.11
  32   7    -0.13   0.16   0.03     0.22   0.10   0.03    -0.04  -0.04   0.03
  33   1    -0.03   0.06   0.02     0.05   0.01   0.01    -0.02  -0.03   0.01
  34   1    -0.06   0.04   0.01     0.08   0.03   0.01     0.00  -0.01   0.02
  35   7    -0.05  -0.00  -0.13     0.18   0.29   0.05    -0.03   0.08  -0.06
  36   1    -0.03  -0.00  -0.04     0.06   0.08   0.02     0.00   0.02  -0.01
  37   1    -0.00  -0.02  -0.03     0.04   0.09   0.02    -0.01   0.03  -0.01
  38   6    -0.02   0.10  -0.02    -0.00  -0.11   0.01     0.11  -0.01   0.13
  39   8    -0.15   0.11  -0.07     0.07  -0.19  -0.00     0.42  -0.05   0.21
  40   7     0.12   0.14  -0.05    -0.04  -0.07  -0.01    -0.10  -0.03   0.17
  41   1     0.01   0.05  -0.03     0.01  -0.03  -0.01     0.01  -0.03   0.07
  42   1     0.04   0.05  -0.00    -0.02  -0.01   0.00    -0.08  -0.01   0.04
  43   7    -0.06   0.12   0.03    -0.04  -0.11   0.04    -0.03   0.04   0.06
  44   1     0.05   0.02   0.02    -0.04  -0.01   0.01    -0.06   0.02   0.01
  45   1     0.01   0.01   0.02    -0.01  -0.02   0.01     0.03   0.00   0.01
  46   6     0.11  -0.09   0.08    -0.03   0.03  -0.04     0.04  -0.08   0.02
  47   8     0.22  -0.36   0.15    -0.06   0.24  -0.02     0.15  -0.22   0.14
  48   7     0.14   0.14  -0.14    -0.13  -0.13   0.07     0.02  -0.02  -0.06
  49   1     0.12  -0.02   0.00    -0.10   0.01   0.00     0.04  -0.03   0.01
  50   1     0.07   0.05   0.02    -0.06  -0.05  -0.03    -0.00   0.01  -0.03
  51   7     0.01  -0.04   0.19     0.10  -0.04  -0.12    -0.07   0.01  -0.09
  52   1    -0.04   0.06  -0.01     0.04  -0.06  -0.01    -0.03   0.01  -0.03
  53   1    -0.03  -0.01   0.03     0.04  -0.01  -0.02     0.01  -0.02   0.01
                     19                     20                     21
                        a                      a                      a 
 Frequencies --   121.6125               122.4502               145.8910
 Red. masses --    11.5004                12.6569                12.4902
 Frc consts  --     0.0000                 0.0000                 0.0000
 IR Inten    --     9.0142                34.5799                 6.6086
 Raman Activ --     0.0000                 0.0000                 0.0000
 Depolar     --     0.0000                 0.0000                 0.0000
 Atom AN      X      Y      Z        X      Y      Z        X      Y      Z
   1   8    -0.12  -0.06   0.01    -0.07  -0.01  -0.15    -0.26  -0.21   0.25
   2   6    -0.01   0.07  -0.09    -0.12   0.00  -0.05    -0.05  -0.03   0.03
   3   1    -0.03   0.05  -0.05    -0.03   0.01   0.00    -0.06   0.03  -0.04
   4   1     0.04   0.03  -0.03    -0.03   0.00  -0.01     0.04   0.00  -0.00
   5   6     0.05   0.06  -0.07    -0.22  -0.01  -0.07     0.12  -0.04   0.07
   6   1     0.01   0.02  -0.01    -0.07  -0.00  -0.04     0.05  -0.04   0.07
   7   1     0.02   0.01  -0.02    -0.07  -0.00  -0.01     0.08   0.01  -0.01
   8   7     0.11   0.06  -0.09    -0.25  -0.01  -0.06    -0.03  -0.04   0.02
   9   6     0.30   0.06  -0.28    -0.14  -0.00  -0.15    -0.06  -0.17  -0.03
  10   1     0.07   0.02  -0.14    -0.05   0.01  -0.06    -0.01  -0.08  -0.02
  11   1     0.09   0.02  -0.08    -0.03  -0.00  -0.05    -0.06  -0.05  -0.01
  12   1     0.14   0.02  -0.07    -0.02  -0.01  -0.04     0.00  -0.04  -0.01
  13   6    -0.17   0.12  -0.17    -0.33   0.01  -0.08    -0.08  -0.00  -0.01
  14   1    -0.07   0.05  -0.10    -0.10   0.00  -0.04    -0.03   0.00  -0.01
  15   1    -0.10   0.03  -0.00    -0.11   0.01  -0.01    -0.03   0.00   0.01
  16   1    -0.03   0.04  -0.06    -0.10   0.00  -0.03    -0.02   0.00  -0.01
  17   6     0.19  -0.02   0.20    -0.20  -0.02   0.07    -0.07   0.07   0.02
  18   1     0.13  -0.05   0.09    -0.03  -0.00   0.03    -0.00  -0.00   0.02
  19   1     0.06  -0.00   0.03    -0.06  -0.01   0.03    -0.05   0.03  -0.03
  20   1    -0.00   0.01   0.13    -0.07  -0.01   0.04    -0.01   0.06   0.03
  21   1    -0.00  -0.04   0.02    -0.01  -0.01  -0.06    -0.03  -0.08   0.10
  22   6    -0.08  -0.08   0.15     0.14   0.07   0.03     0.14   0.00  -0.05
  23   8    -0.09  -0.20   0.51     0.16   0.07   0.05     0.09   0.15  -0.06
  24   7     0.00  -0.03   0.04     0.16   0.09   0.01     0.30  -0.05   0.01
  25   1     0.01  -0.01   0.03     0.04   0.03  -0.00     0.09   0.01  -0.01
  26   1    -0.02   0.02  -0.08     0.04   0.03  -0.02     0.08  -0.02  -0.01
  27   7    -0.22  -0.05  -0.11     0.16   0.10   0.02     0.08  -0.12  -0.08
  28   1    -0.05  -0.00  -0.09     0.04   0.02   0.03     0.03  -0.06  -0.03
  29   1    -0.07  -0.03   0.01     0.05   0.02   0.02    -0.01  -0.02  -0.04
  30   6    -0.02   0.03  -0.02     0.04  -0.00  -0.02    -0.08   0.08  -0.07
  31   8    -0.03   0.03  -0.05     0.11  -0.00  -0.08    -0.06   0.09  -0.11
  32   7    -0.01   0.02  -0.01    -0.01   0.05   0.02    -0.13   0.14  -0.03
  33   1    -0.01   0.00   0.00     0.00   0.02  -0.00    -0.03   0.05  -0.00
  34   1    -0.00   0.01   0.01    -0.02   0.01   0.02    -0.06   0.03   0.01
  35   7    -0.01   0.06  -0.01     0.01  -0.04  -0.00    -0.09   0.10  -0.07
  36   1     0.00   0.02   0.00    -0.01  -0.01   0.01    -0.02   0.03  -0.02
  37   1    -0.00   0.02  -0.00     0.01  -0.02  -0.00    -0.02   0.03  -0.03
  38   6     0.00  -0.00   0.01     0.15  -0.01   0.10    -0.04  -0.03   0.10
  39   8    -0.01  -0.02   0.00     0.48  -0.01   0.20    -0.10  -0.23   0.00
  40   7     0.03   0.00   0.01    -0.10  -0.06   0.16     0.06   0.16   0.01
  41   1     0.00   0.00  -0.00     0.01  -0.04   0.08     0.02   0.04  -0.05
  42   1     0.01   0.01   0.00    -0.07  -0.03   0.03     0.03   0.09   0.03
  43   7     0.00  -0.01   0.03     0.05   0.03  -0.03    -0.11  -0.02   0.32
  44   1     0.00   0.00   0.01    -0.06   0.01  -0.02    -0.01   0.01   0.10
  45   1    -0.00  -0.00   0.01     0.03   0.01  -0.01    -0.02  -0.03   0.10
  46   6     0.01  -0.02   0.00     0.02  -0.06   0.02     0.08   0.04  -0.07
  47   8     0.03  -0.04   0.02     0.05  -0.14   0.04     0.11   0.14  -0.04
  48   7     0.00   0.00  -0.02     0.03  -0.01  -0.03     0.03  -0.04  -0.04
  49   1     0.02  -0.01   0.01     0.02  -0.01  -0.00    -0.01  -0.00  -0.00
  50   1     0.01  -0.01   0.01     0.01   0.00  -0.00    -0.00  -0.02  -0.03
  51   7    -0.00  -0.00  -0.01    -0.04  -0.03   0.01     0.14   0.03  -0.19
  52   1    -0.00   0.00  -0.01    -0.01  -0.00   0.00     0.05  -0.02  -0.04
  53   1    -0.00  -0.00  -0.00     0.01  -0.02   0.02     0.05  -0.00  -0.04
                     22                     23                     24
                        a                      a                      a 
 Frequencies --   153.8486               168.4836               175.1822
 Red. masses --    12.4503                12.9383                11.6883
 Frc consts  --     0.0000                 0.0000                 0.0000
 IR Inten    --    17.9813                 8.7985                12.9439
 Raman Activ --     0.0000                 0.0000                 0.0000
 Depolar     --     0.0000                 0.0000                 0.0000
 Atom AN      X      Y      Z        X      Y      Z        X      Y      Z
   1   8    -0.21  -0.17   0.22    -0.06   0.17   0.07    -0.10   0.42   0.17
   2   6    -0.03  -0.04   0.02    -0.04  -0.05   0.02    -0.05  -0.07   0.05
   3   1    -0.04   0.01  -0.03     0.01  -0.04   0.00     0.02  -0.08   0.01
   4   1     0.03  -0.01  -0.01    -0.05  -0.03  -0.01    -0.11  -0.04  -0.01
   5   6     0.11  -0.06   0.07     0.09  -0.06   0.05     0.21  -0.09   0.10
   6   1     0.05  -0.03   0.05     0.04  -0.03   0.04     0.09  -0.06   0.09
   7   1     0.06  -0.00  -0.00     0.05   0.00  -0.00     0.12   0.01  -0.01
   8   7     0.03  -0.06   0.04     0.02  -0.06  -0.00     0.02  -0.08  -0.03
   9   6     0.01  -0.15   0.00     0.01  -0.12  -0.03    -0.00  -0.24  -0.11
  10   1     0.01  -0.07  -0.01     0.01  -0.08  -0.04     0.01  -0.16  -0.09
  11   1    -0.03  -0.04   0.00    -0.04  -0.03   0.01    -0.10  -0.07   0.02
  12   1     0.02  -0.04   0.00     0.03  -0.01  -0.01     0.07  -0.01  -0.04
  13   6    -0.00  -0.03   0.02    -0.03  -0.02  -0.03    -0.10   0.02  -0.09
  14   1    -0.00  -0.01   0.00    -0.01  -0.00  -0.01    -0.04   0.02  -0.05
  15   1    -0.01  -0.00   0.01    -0.01  -0.00   0.00    -0.06   0.01   0.00
  16   1    -0.00  -0.01  -0.00    -0.01  -0.00  -0.02    -0.02   0.01  -0.04
  17   6     0.00   0.02   0.04    -0.00  -0.01   0.00    -0.02   0.04  -0.03
  18   1     0.02  -0.03   0.02     0.02  -0.05   0.02     0.03  -0.06   0.02
  19   1    -0.03   0.01  -0.03    -0.03   0.01  -0.06    -0.05   0.03  -0.10
  20   1     0.00   0.05   0.04    -0.01   0.05   0.04    -0.00   0.09   0.05
  21   1    -0.02  -0.07   0.08    -0.03   0.05   0.00    -0.04   0.11   0.00
  22   6     0.07   0.00  -0.03    -0.03   0.03   0.01    -0.08   0.05   0.03
  23   8     0.03   0.11  -0.04    -0.02  -0.01  -0.02    -0.05  -0.03  -0.03
  24   7     0.18  -0.04   0.02    -0.07   0.03   0.01    -0.17   0.07   0.01
  25   1     0.05   0.01  -0.02    -0.02   0.01  -0.00    -0.05   0.02  -0.00
  26   1     0.05  -0.01  -0.02    -0.02   0.01   0.01    -0.05   0.02   0.02
  27   7     0.03  -0.09  -0.05    -0.00   0.07   0.04    -0.01   0.14   0.09
  28   1     0.02  -0.05  -0.02    -0.01   0.03   0.02    -0.01   0.06   0.05
  29   1    -0.02  -0.02  -0.02     0.01   0.02   0.01     0.03   0.03   0.03
  30   6     0.05   0.14  -0.02     0.09   0.01  -0.01     0.09  -0.05  -0.06
  31   8    -0.06   0.14  -0.14     0.13   0.00  -0.11     0.27  -0.07  -0.19
  32   7     0.13   0.05   0.06     0.08   0.02   0.02    -0.03   0.07   0.03
  33   1     0.02  -0.02   0.01     0.03   0.00  -0.01     0.02   0.04  -0.03
  34   1     0.05   0.01   0.05     0.01   0.01   0.02    -0.04   0.01   0.02
  35   7     0.09   0.29   0.03     0.06  -0.01   0.06     0.01  -0.20   0.01
  36   1     0.05   0.08   0.02    -0.00   0.01   0.04    -0.05  -0.04   0.05
  37   1     0.02   0.09   0.00     0.02  -0.01   0.01     0.01  -0.07   0.01
  38   6     0.01   0.01  -0.16    -0.07   0.20   0.15     0.01  -0.09  -0.08
  39   8     0.01   0.23  -0.07    -0.26   0.40   0.23     0.07  -0.17  -0.12
  40   7    -0.06  -0.20  -0.07     0.01  -0.03   0.28     0.00   0.00  -0.14
  41   1    -0.04  -0.05   0.03    -0.04   0.01   0.12     0.01  -0.00  -0.06
  42   1    -0.02  -0.10  -0.05     0.04  -0.06   0.05    -0.01   0.02  -0.02
  43   7     0.10  -0.01  -0.38     0.04   0.16   0.00    -0.02  -0.08  -0.01
  44   1     0.02  -0.03  -0.12     0.05  -0.00  -0.01    -0.02  -0.00   0.00
  45   1     0.02   0.02  -0.11     0.00   0.07  -0.01    -0.00  -0.03  -0.00
  46   6    -0.11  -0.02   0.10     0.00  -0.17  -0.19    -0.00   0.09   0.09
  47   8    -0.13  -0.12   0.09    -0.01  -0.07  -0.23     0.01   0.04   0.12
  48   7    -0.09   0.05   0.07     0.01  -0.26  -0.12    -0.00   0.11   0.08
  49   1     0.02  -0.02   0.05    -0.06  -0.02  -0.09     0.00   0.03   0.02
  50   1     0.01  -0.00   0.07    -0.04  -0.05  -0.10    -0.01   0.04   0.01
  51   7    -0.19   0.00   0.18     0.07  -0.20  -0.19    -0.02   0.10   0.08
  52   1    -0.07   0.04   0.01     0.04  -0.08  -0.01    -0.01   0.03   0.01
  53   1    -0.07   0.02   0.03     0.03  -0.05  -0.05    -0.00   0.03   0.03
                     25                     26                     27
                        a                      a                      a 
 Frequencies --   190.0610               198.1422               207.4105
 Red. masses --    12.1845                11.5611                 4.4576
 Frc consts  --     0.0000                 0.0000                 0.0000
 IR Inten    --    24.8477                37.5819               167.9818
 Raman Activ --     0.0000                 0.0000                 0.0000
 Depolar     --     0.0000                 0.0000                 0.0000
 Atom AN      X      Y      Z        X      Y      Z        X      Y      Z
   1   8     0.17   0.48  -0.09     0.01   0.04   0.02    -0.01  -0.04   0.04
   2   6     0.04  -0.04   0.01     0.02   0.00   0.01     0.01   0.01   0.01
   3   1     0.07  -0.09   0.04     0.01  -0.00   0.00    -0.01   0.01   0.00
   4   1    -0.10  -0.04  -0.02    -0.00  -0.00   0.00     0.02   0.01  -0.00
   5   6     0.10  -0.05   0.01     0.04  -0.01   0.01    -0.02  -0.00   0.01
   6   1     0.04  -0.03   0.03     0.01  -0.01   0.01    -0.01   0.01  -0.01
   7   1     0.05   0.00  -0.01     0.02   0.00  -0.00    -0.02  -0.01   0.01
   8   7    -0.00  -0.05  -0.04     0.01  -0.01   0.00     0.01   0.00   0.02
   9   6    -0.01  -0.10  -0.07     0.00  -0.04  -0.01     0.00  -0.01   0.02
  10   1     0.01  -0.10  -0.07     0.00  -0.02  -0.01    -0.00   0.01   0.02
  11   1    -0.07  -0.03   0.04    -0.01  -0.01   0.00     0.01  -0.00  -0.01
  12   1     0.06   0.04  -0.03     0.01  -0.01  -0.00    -0.01  -0.02   0.01
  13   6    -0.09  -0.04  -0.06    -0.01   0.00  -0.01     0.03   0.03   0.01
  14   1    -0.03   0.00  -0.04    -0.00  -0.00  -0.01     0.01   0.01   0.01
  15   1    -0.05  -0.02  -0.00    -0.01   0.00   0.00     0.01   0.01   0.00
  16   1    -0.02  -0.01  -0.02    -0.01   0.00  -0.00     0.00   0.01  -0.00
  17   6    -0.03   0.04  -0.01     0.00   0.02  -0.00     0.01  -0.01  -0.01
  18   1     0.02  -0.03   0.01    -0.00   0.01  -0.00    -0.00  -0.01  -0.00
  19   1    -0.04   0.02  -0.06    -0.00   0.00   0.01     0.01  -0.00  -0.01
  20   1    -0.01   0.06   0.04     0.01  -0.00  -0.01     0.00  -0.00  -0.00
  21   1    -0.03   0.19  -0.05    -0.00   0.01   0.01     0.02  -0.04   0.00
  22   6     0.10  -0.02  -0.01    -0.00  -0.00  -0.00    -0.03   0.01  -0.00
  23   8     0.06   0.09   0.06    -0.00   0.01  -0.00    -0.02  -0.03  -0.02
  24   7     0.23  -0.02  -0.03     0.00  -0.00  -0.00    -0.07   0.01   0.00
  25   1     0.07  -0.02   0.03     0.00  -0.00  -0.00    -0.02   0.00  -0.01
  26   1     0.07  -0.02   0.00     0.00   0.00  -0.00    -0.02   0.00   0.00
  27   7     0.02  -0.14  -0.09    -0.00  -0.01   0.00    -0.00   0.04   0.04
  28   1     0.02  -0.06  -0.06     0.00  -0.00  -0.00    -0.01   0.03   0.01
  29   1    -0.03  -0.03  -0.04    -0.00   0.00  -0.01     0.01   0.01   0.00
  30   6    -0.16  -0.02   0.10     0.05   0.04   0.03     0.08   0.01  -0.02
  31   8    -0.38  -0.00   0.34    -0.04   0.04   0.01     0.11   0.00  -0.07
  32   7     0.00  -0.20  -0.03     0.13  -0.05   0.02     0.05   0.02   0.04
  33   1    -0.04  -0.08   0.04     0.03  -0.04   0.00     0.03   0.01  -0.01
  34   1     0.06  -0.05  -0.06     0.06  -0.01   0.02     0.02   0.01  -0.00
  35   7    -0.05   0.12  -0.05     0.05   0.12   0.09     0.03  -0.00   0.07
  36   1     0.05   0.01  -0.08     0.03   0.03   0.00     0.02  -0.01  -0.02
  37   1    -0.03   0.05  -0.00     0.03   0.03  -0.00     0.04  -0.01  -0.04
  38   6    -0.00   0.01   0.01     0.04  -0.00   0.05     0.01   0.00   0.06
  39   8    -0.00   0.01   0.01     0.10  -0.17  -0.03     0.03  -0.07   0.03
  40   7    -0.00  -0.01   0.02     0.07   0.21  -0.07     0.01   0.07   0.02
  41   1    -0.01  -0.00   0.01     0.04   0.05  -0.07     0.02   0.01  -0.01
  42   1    -0.01  -0.01   0.00     0.00   0.11   0.01     0.01   0.03   0.02
  43   7     0.01   0.00  -0.00    -0.01   0.01   0.19     0.01  -0.01   0.12
  44   1    -0.00   0.00  -0.00    -0.04   0.03   0.06    -0.05   0.02   0.03
  45   1    -0.00   0.00  -0.00    -0.03  -0.01   0.07    -0.04   0.01   0.03
  46   6     0.01  -0.02   0.00    -0.15  -0.07  -0.11    -0.03  -0.04  -0.05
  47   8     0.00  -0.01  -0.00    -0.32  -0.23  -0.39    -0.17   0.03  -0.24
  48   7    -0.04   0.01  -0.05     0.31   0.05  -0.01    -0.06   0.09  -0.23
  49   1     0.06  -0.06   0.09     0.01   0.10  -0.26     0.28  -0.22   0.31
  50   1     0.08  -0.08   0.11    -0.02   0.20  -0.12     0.38  -0.30   0.48
  51   7    -0.01  -0.01  -0.02    -0.28  -0.05   0.23    -0.10  -0.03   0.01
  52   1    -0.02   0.02  -0.03    -0.01  -0.03   0.18    -0.09   0.09  -0.10
  53   1    -0.01   0.01  -0.02    -0.10  -0.06   0.09    -0.08   0.03  -0.06
                     28                     29                     30
                        a                      a                      a 
 Frequencies --   257.1316               280.9783               293.8717
 Red. masses --     3.7528                 2.6368                 6.9976
 Frc consts  --     0.0000                 0.0000                 0.0000
 IR Inten    --     3.9232               128.9749                 0.1704
 Raman Activ --     0.0000                 0.0000                 0.0000
 Depolar     --     0.0000                 0.0000                 0.0000
 Atom AN      X      Y      Z        X      Y      Z        X      Y      Z
   1   8    -0.06   0.23   0.16    -0.00   0.02   0.02    -0.02  -0.02   0.21
   2   6     0.09   0.17  -0.02     0.02   0.02  -0.00    -0.03  -0.28   0.15
   3   1    -0.01   0.12  -0.00    -0.00   0.01  -0.00     0.04  -0.17   0.04
   4   1     0.08   0.05  -0.08     0.01   0.01  -0.01    -0.12  -0.09   0.10
   5   6     0.04  -0.08   0.06     0.01  -0.00   0.00     0.05   0.03  -0.01
   6   1     0.01  -0.04  -0.01     0.00   0.00  -0.00     0.02   0.02   0.01
   7   1    -0.00  -0.02   0.03    -0.00  -0.00   0.00     0.02   0.04   0.01
   8   7    -0.01  -0.10   0.00     0.01  -0.01  -0.00     0.01   0.05  -0.13
   9   6     0.03  -0.18  -0.11    -0.00  -0.01   0.01     0.15   0.31  -0.10
  10   1    -0.01   0.16   0.12     0.00  -0.00   0.01     0.03   0.06  -0.12
  11   1     0.20  -0.05  -0.26     0.00  -0.00  -0.00     0.04   0.09   0.09
  12   1    -0.14  -0.29   0.02    -0.01  -0.00   0.00     0.11   0.19  -0.05
  13   6    -0.07   0.06  -0.06     0.00   0.00  -0.01    -0.11  -0.38  -0.04
  14   1     0.06  -0.15   0.05    -0.01   0.01  -0.01    -0.02  -0.17  -0.06
  15   1     0.09   0.22  -0.01    -0.01  -0.01   0.00    -0.02  -0.14  -0.04
  16   1    -0.24   0.03  -0.12     0.01   0.00  -0.00    -0.09  -0.12   0.09
  17   6     0.01  -0.12   0.01     0.02  -0.02  -0.01    -0.05   0.22  -0.11
  18   1    -0.12   0.26  -0.09    -0.00   0.01  -0.01    -0.12   0.30  -0.11
  19   1     0.09  -0.09   0.33     0.01  -0.01   0.01     0.01   0.02   0.23
  20   1     0.04  -0.27  -0.21     0.01  -0.02  -0.01     0.05  -0.09  -0.21
  21   1     0.01   0.03   0.05     0.00   0.01   0.01    -0.04   0.03   0.05
  22   6     0.01   0.00  -0.01    -0.02  -0.02   0.01    -0.00   0.00   0.01
  23   8     0.00   0.01  -0.02    -0.03   0.02  -0.01     0.00  -0.00   0.03
  24   7     0.00  -0.00   0.00     0.02  -0.04   0.06     0.01   0.01   0.01
  25   1     0.00  -0.00   0.00    -0.01   0.03  -0.08     0.00   0.00   0.00
  26   1     0.00  -0.00   0.01    -0.07   0.13  -0.27     0.00   0.01  -0.01
  27   7     0.01  -0.01   0.01     0.02   0.16  -0.29    -0.01   0.00  -0.00
  28   1     0.00   0.01  -0.02     0.00  -0.42   0.65    -0.00  -0.00   0.00
  29   1     0.00   0.01  -0.02     0.01  -0.19   0.37    -0.00  -0.00   0.01
  30   6    -0.01  -0.01   0.00    -0.01   0.00   0.02     0.02   0.01  -0.01
  31   8    -0.02  -0.01   0.02    -0.01   0.00   0.04     0.02   0.01  -0.03
  32   7    -0.01  -0.02  -0.00     0.01  -0.00  -0.01     0.00   0.02   0.01
  33   1    -0.00  -0.01   0.00    -0.01   0.00   0.01     0.01   0.01  -0.00
  34   1     0.00  -0.00  -0.00     0.00  -0.00  -0.01    -0.00   0.00   0.00
  35   7    -0.01  -0.00  -0.00    -0.00  -0.01  -0.00     0.01   0.00   0.00
  36   1     0.00  -0.00  -0.00    -0.00  -0.00  -0.00    -0.00   0.00   0.00
  37   1    -0.00   0.00  -0.00    -0.00  -0.00   0.00     0.00  -0.00   0.00
  38   6    -0.01   0.01  -0.00    -0.00   0.00  -0.00     0.00   0.01   0.01
  39   8    -0.02   0.03   0.00    -0.00  -0.00   0.00     0.00   0.01   0.01
  40   7     0.01  -0.02   0.01    -0.01   0.01   0.00     0.00  -0.01   0.01
  41   1    -0.01  -0.00   0.01     0.01  -0.00  -0.00    -0.01   0.01   0.01
  42   1    -0.00  -0.01  -0.00     0.02  -0.00  -0.00    -0.02   0.00   0.00
  43   7     0.01   0.00  -0.01    -0.00   0.00   0.00    -0.00   0.01  -0.00
  44   1    -0.00   0.00  -0.00    -0.00   0.00  -0.00     0.01  -0.00  -0.00
  45   1    -0.00   0.00  -0.00    -0.00   0.00  -0.00     0.00   0.00  -0.00
  46   6     0.00  -0.00   0.01    -0.00   0.00  -0.00    -0.00   0.00  -0.00
  47   8     0.01   0.00   0.01    -0.01   0.00  -0.01    -0.01   0.01  -0.01
  48   7    -0.01  -0.00   0.00     0.00   0.00  -0.00    -0.01   0.00  -0.01
  49   1    -0.00  -0.00   0.00     0.00  -0.00   0.00     0.01  -0.01   0.01
  50   1    -0.00  -0.00  -0.00     0.01  -0.00   0.01     0.01  -0.01   0.02
  51   7    -0.00   0.01  -0.01    -0.00  -0.00   0.00    -0.00   0.00  -0.00
  52   1     0.01  -0.01   0.01    -0.00   0.00  -0.01    -0.00   0.00  -0.00
  53   1     0.01  -0.01   0.01    -0.00   0.00  -0.00    -0.00  -0.00   0.00
                     31                     32                     33
                        a                      a                      a 
 Frequencies --   299.0543               323.1017               327.3349
 Red. masses --     3.4936                 2.5397                 6.2919
 Frc consts  --     0.0000                 0.0000                 0.0000
 IR Inten    --     0.3863                47.3289                14.1300
 Raman Activ --     0.0000                 0.0000                 0.0000
 Depolar     --     0.0000                 0.0000                 0.0000
 Atom AN      X      Y      Z        X      Y      Z        X      Y      Z
   1   8    -0.03  -0.01  -0.13    -0.01  -0.04  -0.11    -0.04  -0.12  -0.32
   2   6    -0.13  -0.23  -0.00    -0.08  -0.05  -0.01    -0.23  -0.11  -0.03
   3   1     0.02  -0.18  -0.01    -0.01  -0.04   0.00    -0.02  -0.09   0.02
   4   1    -0.16  -0.08   0.06    -0.05  -0.02   0.01    -0.13  -0.04   0.04
   5   6     0.09   0.03  -0.05    -0.01   0.00  -0.00    -0.07   0.03  -0.00
   6   1     0.03   0.02   0.03    -0.00   0.01   0.01    -0.02   0.05   0.03
   7   1     0.05   0.02  -0.04     0.00  -0.01  -0.01    -0.02  -0.03  -0.02
   8   7     0.06   0.06   0.01     0.04   0.01   0.03     0.11   0.04   0.09
   9   6     0.05   0.04  -0.01     0.02  -0.06   0.01     0.05  -0.24  -0.00
  10   1    -0.02   0.32   0.22     0.02  -0.09  -0.04     0.04  -0.26  -0.10
  11   1     0.28   0.01  -0.30    -0.06  -0.02   0.05    -0.18  -0.06   0.09
  12   1    -0.22  -0.30   0.06     0.06   0.03  -0.01     0.15   0.05  -0.01
  13   6     0.00  -0.12   0.05     0.03   0.05   0.02     0.14   0.16   0.07
  14   1     0.05  -0.15   0.04     0.04  -0.05   0.04     0.12  -0.12   0.12
  15   1     0.07   0.05  -0.00     0.06   0.10   0.01     0.18   0.25   0.00
  16   1    -0.13  -0.03   0.01    -0.08   0.02  -0.03    -0.18   0.06  -0.08
  17   6    -0.01   0.28   0.12     0.02   0.07   0.05     0.06   0.24   0.19
  18   1     0.10  -0.10   0.10    -0.01   0.08  -0.00    -0.00   0.22   0.02
  19   1    -0.11   0.11  -0.16     0.00   0.01   0.07    -0.00   0.04   0.21
  20   1    -0.02   0.26   0.18     0.02  -0.01  -0.02     0.04  -0.01  -0.03
  21   1    -0.06   0.05  -0.04    -0.02   0.00  -0.04    -0.04  -0.01  -0.11
  22   6    -0.00  -0.00  -0.01    -0.00   0.01   0.00    -0.01   0.00   0.00
  23   8    -0.00  -0.00  -0.01    -0.00   0.01  -0.00    -0.01   0.01  -0.01
  24   7    -0.01  -0.01  -0.00     0.01   0.00   0.00    -0.00   0.00  -0.00
  25   1    -0.00  -0.00  -0.00     0.00   0.00   0.00     0.00  -0.00   0.01
  26   1    -0.00  -0.00   0.00     0.00  -0.00   0.00     0.00  -0.01   0.01
  27   7     0.01   0.00  -0.01    -0.01  -0.01   0.00    -0.01   0.01  -0.01
  28   1     0.00  -0.02   0.03    -0.00   0.00  -0.01    -0.00  -0.03   0.03
  29   1     0.00  -0.01   0.01    -0.00   0.00  -0.00    -0.01  -0.01   0.01
  30   6     0.00   0.01   0.00    -0.00   0.00  -0.00     0.00   0.01   0.00
  31   8    -0.00   0.00   0.00    -0.00   0.00  -0.00     0.00   0.00   0.01
  32   7     0.01   0.00   0.00     0.01   0.00  -0.00     0.00   0.00   0.01
  33   1     0.00  -0.00  -0.00    -0.00  -0.00   0.01     0.01   0.00  -0.01
  34   1     0.00   0.00  -0.00    -0.00  -0.00   0.01     0.01   0.00  -0.02
  35   7     0.00  -0.00  -0.00    -0.00   0.01   0.01     0.01  -0.01  -0.01
  36   1    -0.00  -0.00   0.00     0.01  -0.00  -0.02    -0.01   0.00   0.01
  37   1     0.00  -0.01   0.01     0.01  -0.00  -0.01    -0.00  -0.00   0.01
  38   6     0.00  -0.01  -0.00    -0.03   0.00  -0.02     0.01  -0.00   0.00
  39   8     0.01  -0.02  -0.00    -0.04  -0.01  -0.01     0.01  -0.00   0.00
  40   7    -0.00   0.01  -0.01    -0.21   0.10   0.05     0.08  -0.04  -0.02
  41   1     0.01  -0.00  -0.01     0.34  -0.17  -0.04    -0.11   0.05   0.02
  42   1     0.01   0.00  -0.00     0.62  -0.22  -0.05    -0.22   0.07   0.02
  43   7    -0.00  -0.01   0.01     0.11  -0.03  -0.01    -0.04   0.01   0.01
  44   1    -0.01   0.00   0.00    -0.44   0.17  -0.03     0.15  -0.05   0.01
  45   1    -0.00  -0.00   0.00    -0.11   0.04  -0.01     0.04  -0.01   0.01
  46   6    -0.00   0.00  -0.00     0.01  -0.01   0.02    -0.00   0.00  -0.01
  47   8     0.00  -0.00   0.00     0.02  -0.02   0.03    -0.00   0.01  -0.01
  48   7     0.00   0.00   0.00     0.01   0.02  -0.01    -0.00  -0.01   0.00
  49   1    -0.00   0.00  -0.00     0.01   0.00  -0.01     0.00  -0.01   0.01
  50   1    -0.00   0.00  -0.00    -0.01   0.02  -0.01     0.01  -0.01   0.01
  51   7     0.00  -0.01   0.01     0.01   0.00  -0.01     0.00  -0.00   0.01
  52   1    -0.01   0.00  -0.01     0.01  -0.01   0.01    -0.01   0.01  -0.02
  53   1    -0.00   0.01  -0.01     0.01  -0.01   0.00    -0.00   0.00  -0.00
                     34                     35                     36
                        a                      a                      a 
 Frequencies --   344.2433               359.2526               373.9850
 Red. masses --     3.1990                 3.1121                 7.1286
 Frc consts  --     0.0000                 0.0000                 0.0000
 IR Inten    --     0.9824                55.8435                10.0993
 Raman Activ --     0.0000                 0.0000                 0.0000
 Depolar     --     0.0000                 0.0000                 0.0000
 Atom AN      X      Y      Z        X      Y      Z        X      Y      Z
   1   8    -0.01  -0.00  -0.13     0.00   0.03  -0.01    -0.01  -0.09  -0.14
   2   6    -0.11   0.02   0.02    -0.01   0.01   0.01    -0.03  -0.23  -0.12
   3   1    -0.02   0.01   0.03     0.00   0.00   0.01     0.03  -0.18  -0.07
   4   1    -0.04   0.00   0.01    -0.01   0.00   0.00    -0.12  -0.08   0.03
   5   6    -0.05   0.02   0.05    -0.03   0.00   0.01     0.35  -0.00  -0.07
   6   1    -0.02   0.03   0.04    -0.01   0.01  -0.00     0.16  -0.08   0.10
   7   1    -0.01  -0.02  -0.01    -0.01  -0.01   0.00     0.22   0.06  -0.10
   8   7     0.05   0.01   0.05     0.01   0.00   0.00     0.02   0.04   0.03
   9   6     0.04  -0.25  -0.12     0.02  -0.02  -0.02    -0.18   0.14   0.29
  10   1     0.01   0.00   0.02     0.01  -0.01  -0.01    -0.03   0.06   0.17
  11   1     0.06  -0.07  -0.19     0.00  -0.01  -0.01    -0.02   0.04   0.09
  12   1    -0.02  -0.22   0.01     0.01  -0.01  -0.00    -0.15   0.05   0.06
  13   6     0.11   0.01   0.07     0.02  -0.01   0.01    -0.23   0.26  -0.09
  14   1    -0.13   0.36  -0.10     0.00   0.00   0.00    -0.12   0.18  -0.10
  15   1    -0.20  -0.37   0.03     0.00  -0.02  -0.00    -0.17   0.04   0.06
  16   1     0.47  -0.01   0.15     0.02  -0.00   0.01     0.03   0.08  -0.07
  17   6    -0.02   0.22   0.05    -0.00   0.03  -0.00     0.10  -0.14   0.09
  18   1    -0.07   0.25  -0.04    -0.00   0.01  -0.00    -0.03   0.06  -0.01
  19   1    -0.01   0.03   0.20    -0.01   0.01  -0.00     0.13  -0.07   0.16
  20   1     0.04  -0.04  -0.11     0.00   0.01  -0.00     0.01  -0.18  -0.06
  21   1    -0.02   0.01  -0.05     0.02  -0.03  -0.03    -0.04   0.03  -0.02
  22   6     0.00  -0.01   0.01    -0.03   0.02  -0.05    -0.00  -0.00  -0.01
  23   8     0.01  -0.02   0.01    -0.02   0.00  -0.05    -0.00  -0.00  -0.01
  24   7    -0.02   0.00  -0.02     0.04  -0.05   0.11     0.01  -0.01   0.00
  25   1    -0.00  -0.01   0.01    -0.01   0.01  -0.05     0.00   0.00  -0.00
  26   1     0.01  -0.02   0.04    -0.09   0.17  -0.30    -0.00   0.01  -0.02
  27   7     0.01   0.01  -0.01    -0.00  -0.03   0.10     0.01   0.01   0.01
  28   1     0.00   0.00  -0.00    -0.01   0.08  -0.07     0.00   0.02  -0.00
  29   1     0.00  -0.00   0.00     0.02   0.02  -0.03     0.01   0.01  -0.01
  30   6    -0.00   0.00   0.00    -0.01  -0.02   0.04     0.01   0.00  -0.00
  31   8    -0.00   0.00   0.01    -0.01  -0.01   0.03     0.00   0.00  -0.01
  32   7    -0.00  -0.00   0.01     0.16   0.05  -0.30     0.01   0.01  -0.01
  33   1     0.01  -0.00  -0.01    -0.17  -0.01   0.27    -0.01  -0.00   0.01
  34   1     0.01   0.00  -0.03    -0.28  -0.03   0.66    -0.01  -0.00   0.04
  35   7     0.00  -0.00  -0.00    -0.02  -0.02   0.06    -0.00  -0.00   0.01
  36   1    -0.00   0.00   0.01     0.10  -0.07  -0.24     0.01  -0.01  -0.03
  37   1    -0.00  -0.00   0.00     0.02  -0.03  -0.02     0.00  -0.01   0.00
  38   6     0.01   0.01   0.00    -0.00   0.00  -0.00    -0.03   0.02  -0.00
  39   8    -0.01   0.01   0.00    -0.00   0.00   0.00    -0.02   0.01  -0.00
  40   7    -0.02   0.00   0.01     0.01  -0.01  -0.00     0.05  -0.02  -0.00
  41   1     0.00  -0.00   0.00    -0.01   0.01   0.00    -0.03   0.01   0.01
  42   1     0.04  -0.02  -0.00    -0.03   0.01   0.00    -0.06   0.02   0.00
  43   7    -0.01   0.01  -0.01     0.00  -0.00   0.00     0.04  -0.01  -0.01
  44   1     0.00  -0.00  -0.00    -0.00   0.00   0.00    -0.06   0.02  -0.01
  45   1     0.00   0.00  -0.00    -0.00   0.00   0.00    -0.02   0.01  -0.00
  46   6    -0.00  -0.00  -0.00    -0.00   0.00   0.00     0.00  -0.01   0.02
  47   8     0.00  -0.00   0.00    -0.00   0.01   0.00    -0.00  -0.01   0.01
  48   7     0.00  -0.00  -0.00    -0.01  -0.00   0.00    -0.02   0.02  -0.02
  49   1     0.00  -0.00   0.00    -0.00  -0.00   0.00     0.01  -0.01   0.01
  50   1     0.00  -0.00   0.00    -0.00  -0.00   0.00     0.02  -0.01   0.03
  51   7    -0.00  -0.00   0.00     0.00  -0.00   0.00    -0.02   0.03  -0.04
  52   1    -0.01   0.01  -0.01    -0.01   0.01  -0.01     0.05  -0.05   0.07
  53   1    -0.00   0.00   0.00    -0.00   0.00  -0.00     0.02  -0.02   0.02
                     37                     38                     39
                        a                      a                      a 
 Frequencies --   387.3679               394.4710               423.1913
 Red. masses --     3.1626                 3.6593                 3.2798
 Frc consts  --     0.0000                 0.0000                 0.0000
 IR Inten    --   186.9322               153.3217               417.9818
 Raman Activ --     0.0000                 0.0000                 0.0000
 Depolar     --     0.0000                 0.0000                 0.0000
 Atom AN      X      Y      Z        X      Y      Z        X      Y      Z
   1   8     0.00  -0.01   0.02     0.00   0.00   0.01    -0.01  -0.02  -0.04
   2   6     0.01  -0.01  -0.01    -0.01   0.04   0.03    -0.01   0.01  -0.01
   3   1     0.00  -0.00  -0.01    -0.00   0.02   0.02    -0.00   0.00  -0.00
   4   1     0.00  -0.00  -0.00     0.02   0.01   0.00     0.00   0.00  -0.01
   5   6     0.03  -0.00  -0.01    -0.06   0.01   0.02     0.02  -0.01   0.02
   6   1     0.01  -0.01  -0.01    -0.02   0.01  -0.01     0.01  -0.01   0.02
   7   1     0.01   0.00   0.00    -0.02  -0.00   0.00     0.01  -0.01  -0.01
   8   7    -0.00  -0.00  -0.01    -0.02   0.00   0.01     0.01  -0.01   0.07
   9   6    -0.02   0.02   0.02     0.03  -0.02  -0.05     0.07   0.00   0.02
  10   1    -0.00   0.01   0.01     0.00  -0.01  -0.04     0.01   0.01  -0.01
  11   1    -0.00   0.01   0.01     0.01  -0.01  -0.02     0.03   0.00   0.00
  12   1    -0.01   0.01   0.00     0.03  -0.01  -0.01     0.04  -0.00   0.01
  13   6    -0.01   0.01  -0.01     0.04  -0.05   0.04    -0.05   0.03   0.04
  14   1    -0.00  -0.00  -0.00     0.02  -0.02   0.02    -0.01  -0.00   0.00
  15   1    -0.00   0.01   0.00     0.03  -0.02  -0.01    -0.02   0.02   0.03
  16   1    -0.01   0.00  -0.01     0.01  -0.02   0.02    -0.03   0.01  -0.00
  17   6     0.01  -0.02   0.01    -0.03   0.02  -0.00    -0.03   0.01  -0.07
  18   1     0.00   0.00   0.00     0.00  -0.02   0.01    -0.04  -0.01  -0.03
  19   1     0.01  -0.01   0.01    -0.02   0.01  -0.03    -0.01   0.01  -0.04
  20   1    -0.00  -0.01  -0.00    -0.01   0.03   0.01     0.02   0.02  -0.04
  21   1    -0.01   0.01   0.01     0.01  -0.01  -0.00     0.00  -0.01  -0.01
  22   6     0.03  -0.04   0.09     0.01  -0.01   0.02     0.00  -0.00   0.00
  23   8     0.01  -0.01   0.09     0.00  -0.00   0.02    -0.00  -0.00   0.00
  24   7    -0.10   0.10  -0.22    -0.04   0.03  -0.07     0.00  -0.00   0.00
  25   1     0.02  -0.00   0.07     0.00  -0.00   0.02     0.00   0.00  -0.00
  26   1     0.17  -0.34   0.62     0.05  -0.11   0.19     0.00  -0.00   0.00
  27   7     0.01   0.09  -0.17     0.01   0.03  -0.06    -0.00   0.00  -0.00
  28   1     0.01  -0.12   0.14     0.00  -0.05   0.07    -0.00   0.01  -0.01
  29   1    -0.01  -0.04   0.08    -0.00  -0.01   0.02     0.00  -0.01   0.01
  30   6     0.00  -0.02  -0.03     0.01  -0.01  -0.03    -0.01   0.01   0.02
  31   8    -0.00  -0.02  -0.03     0.01  -0.01  -0.02    -0.00   0.00   0.02
  32   7     0.03   0.02  -0.08    -0.01   0.01   0.01     0.03   0.00  -0.04
  33   1    -0.04  -0.01   0.04     0.00  -0.00  -0.01    -0.02  -0.00   0.03
  34   1    -0.13  -0.02   0.31    -0.03  -0.00   0.06    -0.01  -0.00   0.05
  35   7    -0.02   0.04   0.06    -0.02   0.03   0.06     0.02  -0.02  -0.04
  36   1     0.10  -0.05  -0.21     0.08  -0.04  -0.17    -0.04   0.03   0.11
  37   1     0.01   0.00  -0.01     0.02  -0.01  -0.03    -0.01   0.01  -0.00
  38   6     0.04  -0.02   0.01    -0.10   0.05  -0.02     0.10  -0.05   0.01
  39   8     0.02  -0.01   0.01    -0.05   0.03  -0.02     0.05  -0.03   0.02
  40   7    -0.06   0.03   0.01     0.17  -0.08  -0.03    -0.18   0.10   0.01
  41   1     0.03  -0.01  -0.01    -0.08   0.04   0.02     0.06  -0.02  -0.05
  42   1     0.09  -0.02  -0.00    -0.24   0.07   0.01     0.31  -0.07  -0.01
  43   7    -0.06   0.02  -0.00     0.15  -0.05   0.01    -0.19   0.06  -0.05
  44   1     0.15  -0.06   0.01    -0.38   0.15  -0.02     0.54  -0.22   0.01
  45   1     0.03  -0.01  -0.00    -0.07   0.02  -0.00     0.04  -0.00  -0.02
  46   6    -0.02   0.02  -0.03     0.06  -0.06   0.10     0.03  -0.04   0.06
  47   8    -0.01   0.02  -0.01     0.03  -0.05   0.05    -0.00  -0.03   0.01
  48   7     0.02  -0.03   0.03    -0.09   0.08  -0.09    -0.08   0.06  -0.08
  49   1    -0.01   0.01  -0.01     0.05  -0.03   0.05     0.03  -0.03   0.05
  50   1    -0.01   0.01  -0.02     0.02  -0.01   0.04     0.05  -0.04   0.08
  51   7     0.02  -0.04   0.06    -0.06   0.11  -0.18    -0.08   0.09  -0.11
  52   1    -0.10   0.10  -0.15     0.30  -0.31   0.48     0.26  -0.26   0.43
  53   1    -0.01   0.02  -0.02     0.03  -0.05   0.05    -0.02  -0.02   0.01
                     40                     41                     42
                        a                      a                      a 
 Frequencies --   428.3691               438.6905               462.2575
 Red. masses --     8.4873                 3.2672                 5.7486
 Frc consts  --     0.0000                 0.0000                 0.0000
 IR Inten    --    19.2728               363.0865                11.2123
 Raman Activ --     0.0000                 0.0000                 0.0000
 Depolar     --     0.0000                 0.0000                 0.0000
 Atom AN      X      Y      Z        X      Y      Z        X      Y      Z
   1   8     0.00   0.08   0.21    -0.00   0.01   0.02    -0.00   0.01   0.05
   2   6     0.08  -0.09   0.05     0.01  -0.01  -0.00     0.07  -0.09  -0.06
   3   1     0.04  -0.06   0.01     0.00   0.00   0.00     0.01  -0.01  -0.02
   4   1    -0.02  -0.03   0.04     0.01  -0.00  -0.01     0.03  -0.03  -0.05
   5   6    -0.08   0.10  -0.13     0.00  -0.01  -0.00     0.02  -0.16  -0.03
   6   1    -0.05   0.07  -0.09     0.00  -0.01  -0.00     0.01  -0.07  -0.00
   7   1    -0.09   0.04   0.03     0.01   0.00  -0.00     0.02  -0.02  -0.01
   8   7    -0.01   0.10  -0.32    -0.02  -0.01  -0.00    -0.13  -0.12  -0.02
   9   6    -0.38  -0.04  -0.06    -0.01   0.01  -0.01     0.03   0.12  -0.05
  10   1    -0.06  -0.08   0.09    -0.00   0.01  -0.01    -0.01   0.07  -0.06
  11   1    -0.18  -0.01  -0.01     0.00   0.00   0.00     0.07   0.03   0.03
  12   1    -0.19   0.00  -0.04     0.00   0.01  -0.00     0.03   0.06  -0.02
  13   6     0.23  -0.11  -0.21     0.02   0.00   0.00     0.15   0.13  -0.01
  14   1     0.08  -0.02  -0.01     0.01   0.01   0.01     0.04   0.09   0.08
  15   1     0.10  -0.07  -0.12     0.01   0.00  -0.01     0.07   0.04  -0.03
  16   1     0.09  -0.04  -0.00     0.01   0.00  -0.00     0.10   0.04  -0.06
  17   6     0.17  -0.01   0.36    -0.02  -0.00   0.02    -0.18   0.04   0.12
  18   1     0.21   0.05   0.14     0.00   0.00   0.01    -0.01   0.05   0.04
  19   1     0.07  -0.02   0.19    -0.01  -0.00   0.01    -0.10   0.01   0.06
  20   1    -0.08  -0.08   0.18    -0.01  -0.00   0.01    -0.05   0.02   0.04
  21   1    -0.00   0.03   0.07     0.01  -0.02  -0.02    -0.02   0.04   0.05
  22   6    -0.01  -0.00  -0.01     0.03   0.01   0.01     0.11   0.07   0.06
  23   8    -0.01   0.01  -0.00     0.03   0.01   0.01     0.18  -0.03  -0.01
  24   7     0.01  -0.01  -0.00    -0.04   0.02  -0.02    -0.15   0.12   0.05
  25   1     0.00  -0.00   0.00    -0.01   0.02  -0.02    -0.09  -0.05   0.02
  26   1     0.00   0.00  -0.01     0.03  -0.07   0.16    -0.09   0.13  -0.02
  27   7     0.01   0.00   0.01    -0.00  -0.01  -0.06    -0.06  -0.14  -0.02
  28   1    -0.00   0.02  -0.01     0.01  -0.04   0.01     0.06  -0.29   0.06
  29   1     0.01   0.00  -0.00    -0.02  -0.02   0.03    -0.24   0.13  -0.32
  30   6     0.00   0.00  -0.00    -0.05   0.05   0.09    -0.01   0.04   0.00
  31   8     0.00  -0.00  -0.01    -0.07   0.04   0.07     0.02   0.04   0.02
  32   7     0.00   0.00  -0.00     0.13   0.01  -0.19    -0.01  -0.00   0.05
  33   1     0.00  -0.00  -0.00    -0.07  -0.02   0.11     0.13  -0.11  -0.28
  34   1    -0.00   0.00   0.01    -0.06  -0.01   0.23     0.03  -0.00   0.18
  35   7     0.00  -0.00  -0.00     0.09  -0.12  -0.23    -0.02  -0.04  -0.06
  36   1    -0.00   0.00   0.01    -0.28   0.17   0.73    -0.02  -0.02  -0.03
  37   1    -0.00   0.00   0.00    -0.03   0.03  -0.02    -0.01  -0.03   0.03
  38   6     0.02  -0.02   0.02    -0.03   0.00   0.01     0.02   0.04  -0.05
  39   8     0.01  -0.01   0.02    -0.01  -0.00   0.01    -0.00  -0.00  -0.09
  40   7    -0.03   0.04  -0.01     0.06  -0.00  -0.01    -0.06  -0.07   0.02
  41   1     0.01   0.01  -0.03    -0.02   0.02  -0.01     0.07  -0.07   0.08
  42   1     0.08   0.00   0.00    -0.06   0.04   0.01    -0.06  -0.08  -0.03
  43   7    -0.04   0.00  -0.04     0.05  -0.03  -0.01     0.01   0.05   0.08
  44   1     0.08  -0.05  -0.01    -0.16   0.05  -0.02     0.07   0.02   0.05
  45   1     0.01   0.01  -0.02     0.00   0.00  -0.01    -0.02  -0.01   0.04
  46   6     0.01  -0.01   0.01     0.02  -0.02   0.00    -0.07  -0.02   0.03
  47   8     0.00  -0.00   0.00     0.01  -0.02   0.00    -0.07   0.02   0.06
  48   7    -0.02   0.01  -0.02     0.01   0.01  -0.02     0.07   0.08  -0.00
  49   1     0.01  -0.01   0.02    -0.06   0.05  -0.07     0.08  -0.01  -0.04
  50   1     0.01  -0.01   0.01     0.08  -0.06   0.09     0.03   0.09   0.03
  51   7    -0.02   0.02  -0.02    -0.03   0.02  -0.01     0.04  -0.08  -0.08
  52   1     0.06  -0.05   0.10    -0.01   0.01  -0.00     0.01  -0.07  -0.03
  53   1    -0.01  -0.00   0.00     0.00  -0.01   0.01     0.04   0.01  -0.04
                     43                     44                     45
                        a                      a                      a 
 Frequencies --   462.8827               464.4422               467.7890
 Red. masses --     7.3694                 4.5727                 4.6337
 Frc consts  --     0.0000                 0.0000                 0.0000
 IR Inten    --    27.1121                11.1820                 4.3975
 Raman Activ --     0.0000                 0.0000                 0.0000
 Depolar     --     0.0000                 0.0000                 0.0000
 Atom AN      X      Y      Z        X      Y      Z        X      Y      Z
   1   8     0.00  -0.01  -0.02    -0.01   0.04   0.06    -0.02   0.03   0.07
   2   6     0.00  -0.01  -0.02     0.07  -0.11  -0.07     0.07  -0.10  -0.06
   3   1     0.00  -0.01  -0.01     0.01   0.00  -0.01     0.00   0.02  -0.00
   4   1    -0.00  -0.00  -0.00     0.03  -0.04  -0.06     0.05  -0.03  -0.07
   5   6     0.05  -0.01   0.00    -0.01  -0.21  -0.03    -0.07  -0.23  -0.03
   6   1     0.03  -0.03   0.03    -0.01  -0.07  -0.03    -0.04  -0.04  -0.06
   7   1     0.04   0.02  -0.02    -0.01  -0.05   0.01    -0.06  -0.08   0.03
   8   7    -0.07  -0.00   0.02    -0.09  -0.17  -0.03    -0.01  -0.20  -0.02
   9   6     0.02   0.03  -0.05     0.05   0.12   0.01     0.08   0.10   0.08
  10   1    -0.01   0.02  -0.04    -0.01   0.08  -0.03     0.00   0.07   0.00
  11   1     0.02   0.01  -0.02     0.08   0.03   0.06     0.08   0.02   0.08
  12   1     0.03   0.01  -0.01     0.02   0.08  -0.01     0.00   0.08   0.00
  13   6     0.04   0.03   0.05     0.13   0.15  -0.06     0.09   0.15  -0.10
  14   1     0.02   0.01   0.04     0.03   0.11   0.05     0.01   0.11   0.01
  15   1     0.03   0.01  -0.01     0.05   0.06  -0.02     0.01   0.07  -0.00
  16   1     0.02   0.01   0.01     0.10   0.05  -0.09     0.08   0.05  -0.12
  17   6    -0.07  -0.03   0.02    -0.17   0.09   0.11    -0.13   0.14   0.07
  18   1    -0.02  -0.01   0.00    -0.00   0.08   0.03     0.01   0.09   0.02
  19   1    -0.01  -0.01   0.01    -0.12   0.02   0.06    -0.14   0.04   0.04
  20   1    -0.02  -0.01   0.00    -0.03   0.06   0.04    -0.00   0.09   0.02
  21   1    -0.01   0.02   0.01     0.01  -0.01   0.00    -0.00   0.01   0.03
  22   6     0.05   0.04   0.03     0.04   0.03   0.00    -0.03  -0.03  -0.06
  23   8     0.09  -0.02  -0.01     0.05   0.01  -0.01    -0.09   0.07  -0.01
  24   7    -0.07   0.07   0.02    -0.07   0.02   0.03     0.05  -0.10   0.04
  25   1    -0.04  -0.02   0.02    -0.03  -0.00  -0.02     0.01   0.01  -0.04
  26   1    -0.04   0.06  -0.02    -0.02   0.01   0.06     0.02  -0.03  -0.00
  27   7    -0.03  -0.06  -0.00    -0.02  -0.04  -0.04     0.02   0.03  -0.04
  28   1     0.03  -0.16   0.05     0.01  -0.02  -0.05    -0.05   0.27  -0.17
  29   1    -0.13   0.09  -0.19    -0.03  -0.05   0.07     0.18  -0.21   0.42
  30   6     0.01  -0.01  -0.01     0.07  -0.06  -0.03    -0.04   0.03   0.02
  31   8     0.01  -0.01  -0.00    -0.06  -0.08  -0.09     0.05   0.04   0.06
  32   7    -0.02   0.01   0.02     0.04   0.04  -0.08    -0.04  -0.03   0.05
  33   1     0.04  -0.01  -0.08    -0.24   0.23   0.56     0.15  -0.13  -0.34
  34   1    -0.01   0.00   0.02    -0.06   0.01  -0.35     0.04  -0.01   0.18
  35   7     0.00   0.00   0.01     0.04   0.03   0.15    -0.02  -0.00  -0.08
  36   1     0.02  -0.02  -0.06     0.04   0.00   0.01    -0.00  -0.00  -0.03
  37   1     0.00  -0.00   0.00     0.04   0.02  -0.04    -0.02  -0.00   0.02
  38   6    -0.05  -0.13   0.14     0.00  -0.00  -0.00    -0.01  -0.02   0.02
  39   8     0.01  -0.00   0.25     0.00   0.00   0.00     0.00   0.00   0.04
  40   7     0.12   0.20  -0.05    -0.00   0.01  -0.00     0.03   0.03  -0.01
  41   1    -0.16   0.17  -0.24     0.04  -0.02   0.00    -0.02   0.03  -0.04
  42   1     0.18   0.20   0.09    -0.02   0.00  -0.00     0.02   0.04   0.02
  43   7    -0.05  -0.13  -0.24     0.00  -0.00   0.00    -0.01  -0.03  -0.03
  44   1    -0.11  -0.10  -0.13     0.01  -0.00   0.00    -0.03  -0.01  -0.02
  45   1     0.05   0.04  -0.12    -0.00  -0.00   0.00     0.01   0.00  -0.02
  46   6     0.15   0.06  -0.07     0.01   0.01  -0.01     0.04   0.02  -0.02
  47   8     0.15  -0.06  -0.14     0.01   0.00  -0.02     0.04  -0.01  -0.04
  48   7    -0.15  -0.18   0.01    -0.02  -0.02  -0.00    -0.04  -0.04   0.00
  49   1    -0.20   0.03   0.08     0.02  -0.03   0.06    -0.04  -0.00   0.03
  50   1    -0.05  -0.21  -0.05    -0.04   0.01  -0.05    -0.02  -0.04  -0.03
  51   7    -0.07   0.18   0.16    -0.01   0.01   0.03    -0.01   0.04   0.04
  52   1    -0.02   0.15   0.07     0.00   0.01   0.02     0.01   0.03   0.03
  53   1    -0.08  -0.01   0.08    -0.02   0.00   0.00    -0.03   0.00   0.01
                     46                     47                     48
                        a                      a                      a 
 Frequencies --   471.9836               475.7148               476.9573
 Red. masses --     6.6740                 2.7717                 3.1759
 Frc consts  --     0.0000                 0.0000                 0.0000
 IR Inten    --     6.7495                19.2533                 6.2192
 Raman Activ --     0.0000                 0.0000                 0.0000
 Depolar     --     0.0000                 0.0000                 0.0000
 Atom AN      X      Y      Z        X      Y      Z        X      Y      Z
   1   8    -0.02   0.05   0.08    -0.00   0.00   0.00     0.01   0.01  -0.00
   2   6     0.03  -0.04   0.00     0.00  -0.00   0.00     0.01  -0.01  -0.01
   3   1    -0.01   0.04   0.03    -0.00   0.01   0.01     0.00   0.00   0.00
   4   1     0.05  -0.01  -0.05     0.01  -0.00  -0.01     0.00  -0.00  -0.01
   5   6    -0.19  -0.13  -0.03    -0.02  -0.03   0.00     0.00  -0.03   0.00
   6   1    -0.13   0.08  -0.13    -0.01   0.00  -0.01     0.00  -0.01   0.01
   7   1    -0.19  -0.12   0.08    -0.02  -0.02   0.01     0.01  -0.00  -0.00
   8   7     0.25  -0.14  -0.03     0.02  -0.03  -0.00    -0.03  -0.02  -0.01
   9   6     0.03  -0.05   0.27     0.01   0.01   0.03     0.01   0.02  -0.02
  10   1     0.03  -0.01   0.15     0.00   0.00   0.01    -0.00   0.02  -0.01
  11   1     0.01  -0.02   0.11     0.01   0.00   0.02     0.02   0.01   0.00
  12   1    -0.09   0.02   0.05    -0.01   0.01   0.00     0.01   0.01  -0.01
  13   6    -0.15   0.03  -0.21    -0.01   0.02  -0.03     0.04   0.02  -0.00
  14   1    -0.07   0.03  -0.15    -0.00   0.00  -0.01     0.01   0.01   0.02
  15   1    -0.13   0.03   0.04    -0.00   0.01  -0.00     0.02   0.01  -0.01
  16   1    -0.05   0.01  -0.11    -0.01   0.01  -0.02     0.02   0.01  -0.01
  17   6     0.15   0.21  -0.08     0.00   0.03  -0.00    -0.04   0.01   0.03
  18   1     0.05   0.09  -0.02     0.01   0.01   0.00     0.00   0.01   0.01
  19   1    -0.06   0.06  -0.03    -0.02   0.01  -0.00    -0.02   0.00   0.01
  20   1     0.08   0.12  -0.02     0.01   0.02   0.00    -0.01   0.01   0.01
  21   1     0.02  -0.03  -0.01     0.00  -0.01  -0.01    -0.00   0.01   0.00
  22   6    -0.06  -0.05   0.03    -0.00  -0.00   0.00    -0.03  -0.02  -0.01
  23   8    -0.06  -0.06   0.03    -0.00  -0.00   0.00    -0.05  -0.00   0.01
  24   7     0.08   0.01  -0.10     0.00  -0.00  -0.01     0.04  -0.03  -0.03
  25   1     0.06   0.00   0.05     0.00   0.00  -0.00     0.02  -0.01   0.02
  26   1     0.04  -0.04  -0.05     0.00  -0.00   0.00     0.01  -0.01  -0.04
  27   7     0.03   0.08   0.10     0.00   0.00   0.00     0.01   0.04   0.03
  28   1     0.01  -0.10   0.19     0.00  -0.00   0.01    -0.01   0.03   0.04
  29   1    -0.02   0.20  -0.33    -0.00   0.01  -0.01     0.04   0.03  -0.03
  30   6    -0.00  -0.06   0.02     0.00   0.02  -0.00     0.02  -0.12   0.02
  31   8    -0.02  -0.07   0.02     0.00   0.02  -0.01    -0.02  -0.14  -0.00
  32   7    -0.07   0.04  -0.04     0.03  -0.01   0.00    -0.14   0.08  -0.02
  33   1     0.02   0.05  -0.05    -0.02  -0.01   0.04     0.03   0.12  -0.05
  34   1    -0.07   0.00   0.02     0.02  -0.00  -0.01    -0.12   0.01  -0.06
  35   7     0.08   0.06  -0.01    -0.02  -0.02  -0.00     0.13   0.12   0.05
  36   1     0.04   0.04   0.08    -0.02  -0.00   0.01     0.15   0.02  -0.05
[...]
  44   1     0.00   0.01  -0.02    -0.00  -0.01   0.02    -0.00  -0.00   0.00
  45   1     0.01   0.06   0.12    -0.01  -0.05  -0.10     0.00  -0.00  -0.00
  46   6     0.01   0.00  -0.01    -0.01   0.00   0.01    -0.00   0.00   0.00
  47   8    -0.01  -0.00   0.00     0.01  -0.00  -0.00    -0.00  -0.00  -0.00
  48   7    -0.00  -0.00   0.00     0.00   0.00  -0.00     0.00   0.00   0.00
  49   1     0.01   0.01   0.00    -0.01  -0.02  -0.00    -0.00  -0.00  -0.00
  50   1    -0.00  -0.00   0.00     0.01   0.00  -0.00     0.00   0.00  -0.00
  51   7     0.00  -0.02  -0.02    -0.00   0.02   0.01     0.00  -0.00   0.00
  52   1     0.01   0.00  -0.01    -0.01   0.00   0.01    -0.00   0.00  -0.00
  53   1    -0.03   0.07   0.07     0.02  -0.05  -0.06     0.00  -0.00  -0.00
                    142                    143                    144
                        a                      a                      a 
 Frequencies --  3491.5582              3494.3891              3497.6644
 Red. masses --     1.4568                 1.4533                 1.4526
 Frc consts  --     0.0000                 0.0000                 0.0000
 IR Inten    --    14.5862                19.8818                14.8971
 Raman Activ --     0.0000                 0.0000                 0.0000
 Depolar     --     0.0000                 0.0000                 0.0000
 Atom AN      X      Y      Z        X      Y      Z        X      Y      Z
   1   8    -0.00  -0.00   0.00     0.00   0.00  -0.00    -0.00  -0.00   0.00
   2   6    -0.00   0.00  -0.00     0.00  -0.00  -0.00     0.00  -0.00  -0.00
   3   1     0.00   0.00  -0.00    -0.00  -0.00   0.00    -0.00  -0.00   0.00
   4   1     0.00  -0.00   0.00    -0.00   0.00   0.00    -0.00   0.00  -0.00
   5   6    -0.00   0.00   0.00     0.00  -0.00   0.00    -0.00  -0.00   0.00
   6   1     0.00   0.00  -0.00    -0.00  -0.00   0.00     0.00   0.00  -0.00
   7   1     0.00  -0.00   0.00    -0.00   0.00  -0.00    -0.00  -0.00  -0.00
   8   7    -0.00  -0.00   0.00     0.00  -0.00   0.00     0.00  -0.00  -0.00
   9   6     0.00   0.00  -0.00     0.00   0.00   0.00    -0.00  -0.00   0.00
  10   1    -0.00   0.00  -0.00    -0.00  -0.00   0.00     0.00   0.00  -0.00
  11   1     0.00  -0.00  -0.00     0.00  -0.00   0.00    -0.00  -0.00   0.00
  12   1    -0.00   0.00   0.00     0.00  -0.00   0.00    -0.00  -0.00  -0.00
  13   6     0.00   0.00  -0.00     0.00  -0.00   0.00    -0.00  -0.00   0.00
  14   1    -0.00   0.00  -0.00    -0.00  -0.00   0.00     0.00   0.00  -0.00
  15   1     0.00  -0.00   0.00    -0.00   0.00  -0.00    -0.00   0.00  -0.00
  16   1    -0.00  -0.00  -0.00     0.00  -0.00   0.00    -0.00  -0.00   0.00
  17   6     0.00  -0.00  -0.00     0.00  -0.00   0.00    -0.00   0.00  -0.00
  18   1    -0.00   0.00  -0.00    -0.00  -0.00   0.00     0.00  -0.00  -0.00
  19   1    -0.00  -0.00  -0.00     0.00  -0.00   0.00    -0.00  -0.00   0.00
  20   1     0.00  -0.00   0.00    -0.00   0.00  -0.00     0.00  -0.00   0.00
  21   1     0.01   0.01  -0.01    -0.00  -0.00   0.00     0.00   0.00  -0.00
  22   6    -0.00  -0.00  -0.00    -0.00  -0.00  -0.00     0.00  -0.00   0.00
  23   8     0.00   0.00   0.00     0.00   0.00   0.00    -0.00  -0.00  -0.00
  24   7     0.00  -0.00  -0.00     0.00  -0.00  -0.00    -0.01  -0.00   0.00
  25   1    -0.01   0.01   0.00    -0.00   0.00   0.00     0.01  -0.01  -0.01
  26   1     0.01   0.01  -0.00    -0.00  -0.00  -0.00     0.03   0.02  -0.00
  27   7     0.00  -0.00   0.00    -0.00   0.00   0.00     0.16  -0.08  -0.04
  28   1    -0.00  -0.00  -0.00     0.00   0.00   0.00    -0.66  -0.26  -0.17
  29   1     0.00   0.00   0.00    -0.00  -0.00  -0.00     0.06   0.58   0.29
  30   6     0.00   0.00   0.00    -0.00  -0.00  -0.00     0.00  -0.00  -0.00
  31   8     0.00  -0.00   0.00     0.00   0.00   0.00    -0.00   0.00   0.00
  32   7     0.12   0.12   0.08     0.00   0.00   0.00    -0.00  -0.00  -0.00
  33   1    -0.53   0.26  -0.32    -0.00   0.00  -0.00     0.00  -0.00   0.00
  34   1     0.10  -0.71   0.00     0.00  -0.00  -0.00    -0.00   0.00  -0.00
  35   7    -0.01  -0.01   0.00     0.00  -0.00   0.00    -0.00   0.00  -0.00
  36   1     0.00   0.04  -0.01     0.00   0.00  -0.00     0.00  -0.00   0.00
  37   1     0.01   0.01   0.00    -0.00  -0.00  -0.00     0.00   0.00   0.00
  38   6     0.00   0.00   0.00    -0.00   0.00  -0.00     0.00   0.00   0.00
  39   8    -0.00  -0.00  -0.00    -0.00  -0.00   0.00    -0.00  -0.00  -0.00
  40   7     0.00   0.00   0.00    -0.06  -0.06  -0.16    -0.00  -0.00  -0.00
  41   1    -0.00  -0.00  -0.00     0.31   0.61   0.02     0.00   0.00   0.00
  42   1     0.00   0.00  -0.00    -0.09  -0.38   0.59    -0.00  -0.00   0.00
  43   7    -0.00  -0.00  -0.00    -0.00   0.00   0.01    -0.00  -0.00   0.00
  44   1     0.00   0.00  -0.00     0.01   0.02  -0.03     0.00   0.00  -0.00
  45   1     0.00   0.00   0.00    -0.00  -0.01  -0.01     0.00  -0.00   0.00
  46   6     0.00   0.00   0.00     0.00  -0.00  -0.00     0.00   0.00  -0.00
  47   8    -0.00  -0.00  -0.00    -0.00   0.00   0.00    -0.00   0.00   0.00
  48   7    -0.00   0.00   0.00    -0.00   0.00   0.00     0.00   0.00  -0.00
  49   1    -0.00  -0.00  -0.00    -0.00  -0.00  -0.00    -0.00  -0.00  -0.00
  50   1     0.00   0.00  -0.00     0.00   0.00  -0.00    -0.00  -0.00   0.00
  51   7    -0.00  -0.00  -0.00     0.00   0.00   0.00    -0.00   0.00  -0.00
  52   1     0.00   0.00  -0.00    -0.01  -0.00   0.00     0.00   0.00   0.00
  53   1    -0.00   0.00   0.00     0.00  -0.01  -0.01     0.00  -0.00  -0.00
                    145                    146                    147
                        a                      a                      a 
 Frequencies --  3504.0742              3523.2901              3532.1120
 Red. masses --     1.4491                 1.9170                 1.9329
 Frc consts  --     0.0000                 0.0000                 0.0000
 IR Inten    --    22.5861                13.5103                12.2283
 Raman Activ --     0.0000                 0.0000                 0.0000
 Depolar     --     0.0000                 0.0000                 0.0000
 Atom AN      X      Y      Z        X      Y      Z        X      Y      Z
   1   8    -0.00  -0.00   0.00    -0.00  -0.00   0.00    -0.00  -0.00   0.00
   2   6     0.00   0.00   0.00    -0.00  -0.00  -0.00    -0.00   0.00   0.00
   3   1    -0.00  -0.00   0.00     0.00   0.00  -0.00     0.00   0.00  -0.00
   4   1     0.00  -0.00   0.00    -0.00   0.00   0.00     0.00  -0.00  -0.00
   5   6    -0.00  -0.00  -0.00    -0.00  -0.00   0.00     0.00   0.00   0.00
   6   1     0.00   0.00  -0.00     0.00  -0.00  -0.00    -0.00   0.00   0.00
   7   1     0.00  -0.00  -0.00    -0.00   0.00  -0.00     0.00   0.00   0.00
   8   7     0.00   0.00   0.00     0.00   0.00   0.00    -0.00  -0.00  -0.00
   9   6    -0.00  -0.00   0.00    -0.00  -0.00  -0.00     0.00   0.00  -0.00
  10   1     0.00   0.00  -0.00     0.00  -0.00  -0.00    -0.00  -0.00   0.00
  11   1    -0.00   0.00  -0.00     0.00   0.00   0.00     0.00  -0.00   0.00
  12   1     0.00  -0.00   0.00    -0.00  -0.00   0.00    -0.00   0.00   0.00
  13   6    -0.00  -0.00  -0.00     0.00  -0.00   0.00     0.00   0.00   0.00
  14   1     0.00   0.00  -0.00    -0.00  -0.00  -0.00    -0.00  -0.00  -0.00
  15   1    -0.00  -0.00  -0.00    -0.00   0.00  -0.00    -0.00   0.00  -0.00
  16   1    -0.00   0.00   0.00    -0.00   0.00   0.00     0.00  -0.00  -0.00
  17   6    -0.00  -0.00   0.00     0.00  -0.00   0.00    -0.00  -0.00   0.00
  18   1    -0.00  -0.00   0.00    -0.00   0.00  -0.00     0.00   0.00  -0.00
  19   1    -0.00   0.00   0.00     0.00   0.00   0.00    -0.00   0.00  -0.00
  20   1     0.00  -0.00  -0.00    -0.00   0.00  -0.00     0.00   0.00   0.00
  21   1     0.00   0.00  -0.00     0.00   0.00  -0.00     0.01   0.01  -0.00
  22   6     0.00   0.00   0.00     0.00  -0.00  -0.00     0.01  -0.00  -0.00
  23   8    -0.00  -0.00  -0.00     0.00   0.00   0.00    -0.00  -0.00   0.00
  24   7    -0.00  -0.00  -0.00     0.00   0.00   0.00     0.25   0.10  -0.01
  25   1    -0.00   0.00   0.00     0.00  -0.00  -0.00    -0.09   0.08   0.04
  26   1     0.00   0.00   0.00    -0.00  -0.00  -0.00    -0.84  -0.45  -0.00
  27   7    -0.00  -0.00  -0.00    -0.00   0.00   0.00    -0.01  -0.02  -0.01
  28   1     0.00   0.00   0.00     0.00   0.00   0.00     0.02   0.01   0.01
  29   1     0.00   0.00   0.00    -0.00  -0.00  -0.00     0.01   0.08   0.04
  30   6    -0.00   0.00  -0.00     0.01   0.01  -0.00    -0.00  -0.00   0.00
  31   8    -0.00  -0.00   0.00    -0.00  -0.00   0.00    -0.00   0.00  -0.00
  32   7     0.00   0.00   0.00     0.02  -0.02   0.01    -0.00   0.01  -0.00
  33   1    -0.00   0.00  -0.00    -0.07   0.03  -0.04     0.01  -0.00   0.00
  34   1     0.00  -0.00   0.00    -0.00   0.03   0.00     0.00  -0.02  -0.00
  35   7    -0.00   0.00  -0.00     0.02   0.26  -0.05    -0.00  -0.00  -0.00
  36   1    -0.00  -0.01   0.00     0.00  -0.92   0.24    -0.00   0.00  -0.00
  37   1     0.01   0.01   0.01    -0.09  -0.05  -0.05     0.00   0.00   0.00
  38   6    -0.00  -0.00  -0.00    -0.00   0.00   0.00     0.00   0.00   0.00
  39   8    -0.00   0.00   0.00     0.00  -0.00  -0.00     0.00  -0.00   0.00
  40   7    -0.00  -0.00  -0.00     0.00   0.00  -0.00     0.00   0.00  -0.00
  41   1     0.00   0.00   0.00    -0.00  -0.00  -0.00    -0.00  -0.00  -0.00
  42   1    -0.00  -0.00   0.00    -0.00  -0.00   0.00    -0.00  -0.00   0.00
  43   7     0.00   0.00   0.00    -0.00  -0.00   0.00    -0.00  -0.00   0.00
  44   1    -0.00  -0.00   0.01     0.00   0.01  -0.01     0.00   0.00  -0.00
  45   1    -0.00  -0.00  -0.01     0.00   0.00   0.00     0.00   0.00   0.00
  46   6     0.00  -0.00  -0.00     0.00   0.00  -0.00     0.00   0.00   0.00
  47   8    -0.00  -0.00   0.00    -0.00  -0.00   0.00    -0.00  -0.00  -0.00
  48   7     0.07  -0.12  -0.12    -0.00   0.00   0.00     0.00   0.00  -0.00
  49   1     0.35   0.56   0.08    -0.00  -0.00  -0.00     0.00  -0.00  -0.00
  50   1    -0.61  -0.12   0.37     0.01   0.00  -0.00    -0.00  -0.00   0.00
  51   7    -0.01   0.00   0.01    -0.00  -0.00  -0.00    -0.00  -0.00  -0.00
  52   1     0.05   0.01  -0.02     0.00   0.00  -0.00     0.00   0.00  -0.00
  53   1     0.00  -0.01  -0.01    -0.00   0.00   0.00    -0.00   0.00   0.00
                    148                    149                    150
                        a                      a                      a 
 Frequencies --  3535.6355              3538.8449              3553.9118
 Red. masses --     1.9031                 1.9099                 2.1710
 Frc consts  --     0.0000                 0.0000                 0.0000
 IR Inten    --    19.0594                14.5339                11.2705
 Raman Activ --     0.0000                 0.0000                 0.0000
 Depolar     --     0.0000                 0.0000                 0.0000
 Atom AN      X      Y      Z        X      Y      Z        X      Y      Z
   1   8     0.00   0.00  -0.00    -0.00  -0.00   0.00     0.00   0.00  -0.00
   2   6     0.00  -0.00  -0.00     0.00  -0.00   0.00    -0.00  -0.00   0.00
   3   1    -0.00   0.00  -0.00     0.00   0.00  -0.00     0.00   0.00  -0.00
   4   1    -0.00   0.00   0.00     0.00  -0.00   0.00    -0.00   0.00  -0.00
   5   6     0.00  -0.00   0.00     0.00  -0.00   0.00     0.00  -0.00   0.00
   6   1     0.00   0.00  -0.00     0.00  -0.00   0.00    -0.00  -0.00  -0.00
   7   1    -0.00  -0.00  -0.00    -0.00   0.00  -0.00    -0.00   0.00  -0.00
   8   7    -0.00   0.00  -0.00     0.00  -0.00   0.00     0.00   0.00  -0.00
   9   6     0.00   0.00   0.00    -0.00  -0.00  -0.00    -0.00  -0.00  -0.00
  10   1    -0.00  -0.00   0.00     0.00   0.00  -0.00     0.00  -0.00  -0.00
  11   1     0.00   0.00  -0.00     0.00  -0.00  -0.00     0.00   0.00   0.00
  12   1    -0.00  -0.00  -0.00    -0.00  -0.00  -0.00    -0.00  -0.00   0.00
  13   6     0.00  -0.00   0.00    -0.00   0.00  -0.00    -0.00  -0.00   0.00
  14   1    -0.00  -0.00  -0.00     0.00   0.00   0.00     0.00  -0.00  -0.00
  15   1    -0.00   0.00  -0.00     0.00  -0.00   0.00    -0.00   0.00  -0.00
  16   1    -0.00   0.00  -0.00    -0.00   0.00  -0.00     0.00   0.00   0.00
  17   6     0.00  -0.00   0.00    -0.00   0.00  -0.00     0.00  -0.00  -0.00
  18   1     0.00   0.00  -0.00     0.00  -0.00  -0.00    -0.00  -0.00   0.00
  19   1     0.00  -0.00  -0.00     0.00   0.00   0.00     0.00   0.00   0.00
  20   1    -0.00   0.00  -0.00     0.00  -0.00   0.00    -0.00   0.00  -0.00
  21   1    -0.00  -0.00   0.00     0.00   0.00  -0.00    -0.01  -0.01   0.00
  22   6    -0.00  -0.00  -0.00     0.00  -0.00   0.00    -0.00   0.00   0.00
  23   8     0.00   0.00   0.00    -0.00  -0.00  -0.00    -0.00   0.00  -0.00
  24   7    -0.00  -0.00   0.00    -0.00  -0.00   0.00    -0.01  -0.00   0.00
  25   1     0.00  -0.00  -0.00     0.00  -0.00  -0.00     0.01  -0.01  -0.00
  26   1     0.00   0.00   0.00     0.00   0.00  -0.00     0.02   0.01   0.00
  27   7     0.00   0.00   0.00    -0.00   0.00   0.00     0.00   0.00   0.00
  28   1    -0.00  -0.00  -0.00     0.00   0.00  -0.00    -0.01  -0.00  -0.00
  29   1    -0.00  -0.00  -0.00    -0.00  -0.00  -0.00    -0.00  -0.01  -0.00
  30   6     0.00  -0.00   0.00     0.00  -0.00   0.00    -0.01   0.01  -0.00
  31   8    -0.00   0.00  -0.00    -0.00   0.00  -0.00     0.00  -0.00   0.00
  32   7    -0.00   0.00  -0.00    -0.00   0.00  -0.00    -0.16   0.23  -0.08
  33   1     0.00  -0.00   0.00     0.00  -0.00   0.00     0.55  -0.24   0.34
  34   1     0.00  -0.00  -0.00     0.00  -0.00  -0.00     0.07  -0.65  -0.02
  35   7    -0.00  -0.00   0.00    -0.00  -0.00   0.00     0.00   0.02  -0.00
  36   1     0.00   0.00  -0.00    -0.00   0.01  -0.00     0.00  -0.08   0.02
  37   1     0.00   0.00   0.00     0.00   0.00   0.00    -0.01  -0.01  -0.00
  38   6    -0.00  -0.00   0.00     0.00   0.00   0.01    -0.00  -0.00   0.00
  39   8     0.00   0.00  -0.00     0.00   0.00  -0.00     0.00  -0.00   0.00
  40   7     0.00   0.00  -0.00     0.02   0.04  -0.01    -0.00  -0.00   0.00
  41   1    -0.01  -0.01  -0.00    -0.05  -0.10  -0.01     0.00   0.00   0.00
  42   1    -0.00  -0.01   0.01    -0.01  -0.03   0.05     0.00   0.00  -0.00
  43   7    -0.00  -0.01   0.02    -0.06  -0.11   0.23     0.00  -0.00  -0.00
  44   1     0.01   0.03  -0.05     0.22   0.46  -0.80    -0.00  -0.00   0.00
  45   1    -0.00  -0.00  -0.01    -0.01  -0.05  -0.06     0.00   0.00   0.00
  46   6    -0.01   0.00   0.01    -0.00  -0.00   0.00     0.00   0.00  -0.00
  47   8     0.00  -0.00  -0.00     0.00   0.00  -0.00    -0.00  -0.00   0.00
  48   7     0.01   0.02   0.00     0.00  -0.00  -0.00    -0.00  -0.00   0.00
  49   1    -0.04  -0.07  -0.01     0.00   0.00   0.00     0.00   0.00   0.00
  50   1    -0.01  -0.00   0.00    -0.01  -0.00   0.00     0.00   0.00  -0.00
  51   7    -0.23  -0.02   0.13     0.02   0.00  -0.01     0.00  -0.00  -0.00
  52   1     0.84   0.12  -0.44    -0.06  -0.01   0.03    -0.00  -0.00   0.00
  53   1     0.01  -0.06  -0.06     0.00   0.00   0.00    -0.00   0.00   0.00
                    151                    152                    153
                        a                      a                      a 
 Frequencies --  3557.9250              3563.0225              3570.2971
 Red. masses --     2.1732                 2.1750                 2.1855
 Frc consts  --     0.0000                 0.0000                 0.0000
 IR Inten    --    15.0056                 7.9831                17.6376
 Raman Activ --     0.0000                 0.0000                 0.0000
 Depolar     --     0.0000                 0.0000                 0.0000
 Atom AN      X      Y      Z        X      Y      Z        X      Y      Z
   1   8     0.00   0.00   0.00    -0.00  -0.00   0.00    -0.00  -0.00   0.00
   2   6    -0.00  -0.00  -0.00    -0.00   0.00   0.00    -0.00   0.00   0.00
   3   1     0.00   0.00  -0.00     0.00   0.00  -0.00     0.00   0.00  -0.00
   4   1     0.00  -0.00   0.00     0.00  -0.00  -0.00     0.00  -0.00   0.00
   5   6     0.00  -0.00   0.00     0.00   0.00  -0.00    -0.00   0.00   0.00
   6   1     0.00  -0.00   0.00    -0.00   0.00   0.00     0.00   0.00  -0.00
   7   1    -0.00  -0.00  -0.00    -0.00   0.00  -0.00    -0.00  -0.00  -0.00
   8   7     0.00  -0.00   0.00    -0.00  -0.00   0.00    -0.00   0.00   0.00
   9   6     0.00   0.00   0.00     0.00   0.00  -0.00    -0.00  -0.00   0.00
  10   1    -0.00  -0.00   0.00    -0.00  -0.00   0.00     0.00   0.00  -0.00
  11   1     0.00   0.00   0.00     0.00  -0.00  -0.00     0.00   0.00  -0.00
  12   1     0.00  -0.00   0.00     0.00   0.00   0.00    -0.00  -0.00  -0.00
  13   6     0.00  -0.00   0.00     0.00   0.00  -0.00    -0.00  -0.00   0.00
  14   1     0.00  -0.00   0.00    -0.00  -0.00  -0.00     0.00   0.00  -0.00
  15   1    -0.00   0.00  -0.00     0.00   0.00  -0.00    -0.00   0.00  -0.00
  16   1     0.00   0.00   0.00     0.00  -0.00  -0.00     0.00   0.00   0.00
  17   6     0.00  -0.00   0.00     0.00  -0.00   0.00     0.00  -0.00   0.00
  18   1     0.00  -0.00   0.00     0.00   0.00  -0.00     0.00   0.00  -0.00
  19   1     0.00   0.00   0.00     0.00  -0.00  -0.00     0.00  -0.00  -0.00
  20   1    -0.00   0.00  -0.00    -0.00   0.00  -0.00    -0.00   0.00  -0.00
  21   1     0.00  -0.00  -0.00     0.00   0.00  -0.00     0.00   0.00  -0.00
  22   6    -0.00  -0.00   0.00     0.01   0.01   0.00     0.00   0.00   0.00
  23   8     0.00   0.00  -0.00    -0.00  -0.00  -0.00    -0.00  -0.00  -0.00
  24   7     0.00   0.00   0.00     0.02   0.01  -0.00     0.00  -0.00  -0.00
  25   1     0.00  -0.00  -0.00    -0.01   0.01   0.01    -0.00   0.00   0.00
  26   1    -0.00  -0.00  -0.00    -0.07  -0.04  -0.00    -0.00  -0.00   0.00
  27   7     0.00   0.00   0.00     0.16   0.22   0.12    -0.00  -0.00  -0.00
  28   1    -0.00  -0.00  -0.00    -0.58  -0.20  -0.14     0.00   0.00   0.00
  29   1    -0.00  -0.00  -0.00    -0.04  -0.63  -0.31     0.00   0.00   0.00
  30   6     0.00  -0.00   0.00     0.00  -0.00   0.00    -0.00   0.00   0.00
  31   8    -0.00   0.00  -0.00    -0.00   0.00  -0.00    -0.00  -0.00  -0.00
  32   7     0.00  -0.00   0.00     0.00  -0.00   0.00     0.00  -0.00   0.00
  33   1    -0.00   0.00  -0.00    -0.01   0.00  -0.00    -0.00   0.00  -0.00
  34   1    -0.00   0.00   0.00    -0.00   0.01   0.00    -0.00   0.00   0.00
  35   7    -0.00  -0.00  -0.00    -0.00  -0.00   0.00    -0.00  -0.00  -0.00
  36   1    -0.00   0.00  -0.00    -0.00   0.00  -0.00    -0.00   0.00  -0.00
  37   1     0.00   0.00   0.00     0.00   0.00   0.00     0.01   0.00   0.00
  38   6    -0.00  -0.01   0.01    -0.00   0.00  -0.00    -0.00  -0.00   0.00
  39   8     0.00   0.00  -0.00     0.00  -0.00   0.00     0.00   0.00  -0.00
  40   7    -0.10  -0.24   0.14     0.00   0.00  -0.00    -0.00  -0.00   0.00
  41   1     0.31   0.60   0.05    -0.00  -0.00  -0.00     0.00   0.00   0.00
  42   1     0.06   0.33  -0.57    -0.00  -0.00   0.00     0.00   0.00  -0.00
  43   7    -0.01  -0.01   0.03     0.00  -0.00  -0.00    -0.00   0.00   0.00
  44   1     0.03   0.06  -0.11    -0.00   0.00  -0.00     0.00   0.00  -0.01
  45   1    -0.00  -0.01  -0.01    -0.00   0.00   0.00    -0.00  -0.00  -0.01
  46   6    -0.00  -0.00   0.00    -0.00   0.00   0.00    -0.01  -0.01   0.00
  47   8     0.00   0.00  -0.00    -0.00  -0.00  -0.00     0.00   0.00  -0.00
  48   7     0.00   0.00  -0.00    -0.00  -0.00  -0.00    -0.23  -0.18   0.06
  49   1    -0.00  -0.01  -0.00     0.00   0.00   0.00     0.35   0.59   0.11
  50   1    -0.00  -0.00   0.00     0.00   0.00  -0.00     0.54   0.08  -0.34
  51   7    -0.00   0.00   0.00     0.00  -0.00  -0.00    -0.01   0.00   0.01
  52   1     0.01   0.00  -0.00    -0.00  -0.00   0.00     0.06   0.01  -0.03
  53   1     0.00  -0.01  -0.01    -0.00   0.00   0.00     0.00  -0.01  -0.01
