      -----------------------------------------------------------      
     |                   =====================                   |     
     |                           x T B                           |     
     |                   =====================                   |     
     |                         S. Grimme                         |     
     |          Mulliken Center for Theoretical Chemistry        |     
     |                    University of Bonn                     |     
      -----------------------------------------------------------      

   * xtb version 6.6.1 (unknown-commit) compiled by '@Linux' on 12/27/2023

   xtb is free software: you can redistribute it and/or modify it under
   the terms of the GNU Lesser General Public License as published by
   the Free Software Foundation, either version 3 of the License, or
   (at your option) any later version.
   
   xtb is distributed in the hope that it will be useful,
   but WITHOUT ANY WARRANTY; without even the implied warranty of
   MERCHANTABILITY or FITNESS FOR A PARTICULAR PURPOSE.  See the
   GNU Lesser General Public License for more details.
   
   Cite this work as:
   * C. Bannwarth, E. Caldeweyher, S. Ehlert, A. Hansen, P. Pracht,
     J. Seibert, S. Spicher, S. Grimme, WIREs Comput. Mol. Sci., 2020, 11,
     e01493. DOI: 10.1002/wcms.1493
   
   for GFN2-xTB:
   * C. Bannwarth, S. Ehlert and S. Grimme., J. Chem. Theory Comput., 2019,
     15, 1652-1671. DOI: 10.1021/acs.jctc.8b01176
   for GFN1-xTB:
   * S. Grimme, C. Bannwarth, P. Shushkov, J. Chem. Theory Comput., 2017,
     13, 1989-2009. DOI: 10.1021/acs.jctc.7b00118
   for GFN0-xTB:
   * P. Pracht, E. Caldeweyher, S. Ehlert, S. Grimme, ChemRxiv, 2019, preprint.
     DOI: 10.26434/chemrxiv.8326202.v1
   for GFN-FF:
   * S. Spicher and S. Grimme, Angew. Chem. Int. Ed., 2020, 59, 15665-15673.
     DOI: 10.1002/anie.202004239
   
   for ALPB and GBSA implicit solvation:
   * S. Ehlert, M. Stahn, S. Spicher, S. Grimme, J. Chem. Theory Comput.,
     2021, 17, 4250-4261. DOI: 10.1021/acs.jctc.1c00471
   
   for DFT-D4:
   * E. Caldeweyher, C. Bannwarth and S. Grimme, J. Chem. Phys., 2017,
     147, 034112. DOI: 10.1063/1.4993215
   * E. Caldeweyher, S. Ehlert, A. Hansen, H. Neugebauer, S. Spicher,
     C. Bannwarth and S. Grimme, J. Chem. Phys., 2019, 150, 154122.
     DOI: 10.1063/1.5090222
   * E. Caldeweyher, J.-M. Mewes, S. Ehlert and S. Grimme, Phys. Chem. Chem. Phys.
     2020, 22, 8499-8512. DOI: 10.1039/D0CP00502A
   
   for sTDA-xTB:
   * S. Grimme and C. Bannwarth, J. Chem. Phys., 2016, 145, 054103.
     DOI: 10.1063/1.4959605
   
   in the mass-spec context:
   * V. Asgeirsson, C. Bauer and S. Grimme, Chem. Sci., 2017, 8, 4879.
     DOI: 10.1039/c7sc00601b
   * J. Koopman and S. Grimme, ACS Omega 2019, 4, 12, 15120-15133.
     DOI: 10.1021/acsomega.9b02011
   
   for metadynamics refer to:
   * S. Grimme, J. Chem. Theory Comput., 2019, 155, 2847-2862
     DOI: 10.1021/acs.jctc.9b00143
   
   for SPH calculations refer to:
   * S. Spicher and S. Grimme, J. Chem. Theory Comput., 2021, 17, 1701-1714
     DOI: 10.1021/acs.jctc.0c01306
   
   with help from (in alphabetical order)
   P. Atkinson, C. Bannwarth, F. Bohle, G. Brandenburg, E. Caldeweyher
   M. Checinski, S. Dohm, S. Ehlert, S. Ehrlich, I. Gerasimov, C. Hölzer
   A. Katbashev, J. Koopman, C. Lavigne, S. Lehtola, F. März, M. Müller,
   F. Musil, H. Neugebauer, J. Pisarek, C. Plett, P. Pracht, F. Pultar,
   J. Seibert, P. Shushkov, S. Spicher, M. Stahn, M. Steiner, T. Strunk,
   J. Stückrath, T. Rose, and J. Unsleber
   
 * started run on 2024/01/10 at 18:25:14.231     

           -------------------------------------------------
          |                Calculation Setup                |
           -------------------------------------------------

          program call               : xtb struc.xyz --gfn2 --hess
          hostname                   : swaroop
          coordinate file            : struc.xyz
          omp threads                :                     1

   ID    Z sym.   atoms
    1    8 O      1, 23, 31, 39, 47
    2    6 C      2, 5, 9, 13, 17, 22, 30, 38, 46
    3    1 H      3, 4, 6, 7, 10-12, 14-16, 18-21, 25, 26, 28, 29, 33, 34,
                  36, 37, 41, 42, 44, 45, 49, 50, 52, 53
    4    7 N      8, 24, 27, 32, 35, 40, 43, 48, 51

molecular fragmentation (1/2 indicates fragments):
11111111111111111111122222222222222222222222222222222
# atoms in fragment 1/2:    21    32
 fragment masses (1/2) :      104.17      240.22
CMA distance (Bohr)    :   5.630
constraining FC (au)   :  0.0500

           -------------------------------------------------
          |                 G F N 2 - x T B                 |
           -------------------------------------------------

        Reference                      10.1021/acs.jctc.8b01176
      * Hamiltonian:
        H0-scaling (s, p, d)           1.850000    2.230000    2.230000
        zeta-weighting                 0.500000
      * Dispersion:
        s8                             2.700000
        a1                             0.520000
        a2                             5.000000
        s9                             5.000000
      * Repulsion:
        kExp                           1.500000    1.000000
        rExp                           1.000000
      * Coulomb:
        alpha                          2.000000
        third order                    shell-resolved
        anisotropic                    true
        a3                             3.000000
        a5                             4.000000
        cn-shift                       1.200000
        cn-exp                         4.000000
        max-rad                        5.000000


          ...................................................
          :                      SETUP                      :
          :.................................................:
          :  # basis functions                 122          :
          :  # atomic orbitals                 122          :
          :  # shells                           76          :
          :  # electrons                       140          :
          :  max. iterations                   250          :
          :  Hamiltonian                  GFN2-xTB          :
          :  restarted?                      false          :
          :  GBSA solvation                  false          :
          :  PC potential                    false          :
          :  electronic temp.          300.0000000     K    :
          :  accuracy                    1.0000000          :
          :  -> integral cutoff          0.2500000E+02      :
          :  -> integral neglect         0.1000000E-07      :
          :  -> SCF convergence          0.1000000E-05 Eh   :
          :  -> wf. convergence          0.1000000E-03 e    :
          :  Broyden damping             0.4000000          :
          ...................................................

 iter      E             dE          RMSdq      gap      omega  full diag
   1    -81.5575385 -0.815575E+02  0.433E+00    5.19       0.0  T
   2    -81.8427709 -0.285232E+00  0.238E+00    5.93       1.0  T
   3    -81.8485091 -0.573813E-02  0.116E+00    5.60       1.0  T
   4    -81.8498811 -0.137203E-02  0.238E-01    5.64       1.0  T
   5    -81.8507333 -0.852239E-03  0.925E-02    5.56       1.0  T
   6    -81.8507584 -0.250372E-04  0.272E-02    5.58       1.0  T
   7    -81.8507631 -0.470670E-05  0.772E-03    5.58       1.8  T
   8    -81.8507634 -0.284239E-06  0.279E-03    5.58       4.9  T
   9    -81.8507634 -0.189220E-07  0.988E-04    5.58      13.9  T
  10    -81.8507634 -0.555755E-08  0.176E-04    5.58      78.3  T

   *** convergence criteria satisfied after 10 iterations ***

         #    Occupation            Energy/Eh            Energy/eV
      -------------------------------------------------------------
         1        2.0000           -0.7943717             -21.6160
       ...           ...                  ...                  ...
        64        2.0000           -0.4995828             -13.5943
        65        2.0000           -0.4979224             -13.5492
        66        2.0000           -0.4958484             -13.4927
        67        2.0000           -0.4903949             -13.3443
        68        2.0000           -0.4897213             -13.3260
        69        2.0000           -0.4836963             -13.1620
        70        2.0000           -0.4805435             -13.0763 (HOMO)
        71                         -0.2756102              -7.4997 (LUMO)
        72                         -0.2729787              -7.4281
        73                         -0.2696467              -7.3375
        74                         -0.2526343              -6.8745
        75                         -0.1475205              -4.0142
       ...                                ...                  ...
       122                          0.5680045              15.4562
      -------------------------------------------------------------
                  HL-Gap            0.2049334 Eh            5.5765 eV
             Fermi-level           -0.3780769 Eh          -10.2880 eV

 SCC (total)                   0 d,  0 h,  0 min,  0.098 sec
 SCC setup                      ...        0 min,  0.000 sec (  0.296%)
 Dispersion                     ...        0 min,  0.001 sec (  0.588%)
 classical contributions        ...        0 min,  0.000 sec (  0.188%)
 integral evaluation            ...        0 min,  0.008 sec (  8.157%)
 iterations                     ...        0 min,  0.061 sec ( 61.715%)
 molecular gradient             ...        0 min,  0.028 sec ( 28.781%)
 printout                       ...        0 min,  0.000 sec (  0.263%)

         :::::::::::::::::::::::::::::::::::::::::::::::::::::
         ::                     SUMMARY                     ::
         :::::::::::::::::::::::::::::::::::::::::::::::::::::
         :: total energy             -80.935465505161 Eh    ::
         :: gradient norm              0.000050264542 Eh/a0 ::
         :: HOMO-LUMO gap              5.576520706033 eV    ::
         ::.................................................::
         :: SCC energy               -81.850763389362 Eh    ::
         :: -> isotropic ES            0.291825682255 Eh    ::
         :: -> anisotropic ES         -0.027655812674 Eh    ::
         :: -> anisotropic XC          0.020269884167 Eh    ::
         :: -> dispersion             -0.044858230480 Eh    ::
         :: repulsion energy           0.913628726436 Eh    ::
         :: add. restraining           0.000000000000 Eh    ::
         :: total charge               1.000000000000 e     ::
         :::::::::::::::::::::::::::::::::::::::::::::::::::::

           ------------------------------------------------- 
          |                Numerical Hessian                |
           ------------------------------------------------- 
step length          :   0.00500
SCC accuracy         :   0.30000
Hessian scale factor :   1.00000
frozen atoms in %    :   0.00000    0
RMS gradient         :   0.00005
estimated CPU  time      0.25 min
estimated wall time      0.25 min

writing file <hessian>.

 projected vibrational frequencies (cm⁻¹)
eigval :       -0.00    -0.00    -0.00    -0.00     0.00     0.00
eigval :       15.74    17.03    30.12    31.91    36.65    41.30
eigval :       45.90    47.58    57.45    62.19    63.44    70.65
eigval :       73.73    81.94    91.92    98.53   103.92   112.86
eigval :      121.61   122.45   145.89   153.85   168.48   175.18
eigval :      190.06   198.14   207.41   257.13   280.98   293.87
eigval :      299.05   323.10   327.33   344.24   359.25   373.99
eigval :      387.37   394.47   423.19   428.37   438.69   462.26
eigval :      462.88   464.44   467.79   471.98   475.71   476.96
eigval :      481.44   483.32   491.49   537.87   542.80   547.33
eigval :      554.09   559.72   618.39   662.75   672.70   674.28
eigval :      678.45   699.00   712.30   731.28   761.82   770.02
eigval :      917.24   923.67   961.90   965.67   968.12   969.75
eigval :      991.29  1003.95  1008.89  1010.59  1017.43  1020.24
eigval :     1024.22  1033.36  1037.73  1084.30  1087.22  1088.77
eigval :     1089.25  1093.06  1099.24  1129.79  1156.22  1222.06
eigval :     1246.38  1273.12  1313.43  1330.25  1347.07  1352.05
eigval :     1355.38  1358.83  1368.68  1385.02  1403.93  1409.27
eigval :     1416.93  1435.60  1441.33  1446.18  1451.08  1454.00
eigval :     1455.88  1458.34  1461.34  1465.52  1470.05  1479.88
eigval :     1483.68  1499.87  1504.81  1514.31  1515.23  1659.95
eigval :     1689.42  1705.69  1717.40  2945.37  2973.87  2985.85
eigval :     3023.86  3036.62  3039.61  3042.47  3044.29  3047.02
eigval :     3050.71  3060.81  3062.56  3065.72  3176.91  3229.62
eigval :     3294.24  3309.30  3417.37  3491.56  3494.39  3497.66
eigval :     3504.07  3523.29  3532.11  3535.64  3538.84  3553.91
eigval :     3557.92  3563.02  3570.30
           -------------------------------------------------
          |                Property Printout                |
           -------------------------------------------------

    * Orbital Energies and Occupations

         #    Occupation            Energy/Eh            Energy/eV
      -------------------------------------------------------------
         1        2.0000           -0.7943712             -21.6159
       ...           ...                  ...                  ...
        58        2.0000           -0.5123623             -13.9421
        59        2.0000           -0.5109459             -13.9035
        60        2.0000           -0.5072522             -13.8030
        61        2.0000           -0.5046595             -13.7325
        62        2.0000           -0.5036730             -13.7056
        63        2.0000           -0.5020672             -13.6619
        64        2.0000           -0.4995837             -13.5944
        65        2.0000           -0.4979221             -13.5491
        66        2.0000           -0.4958483             -13.4927
        67        2.0000           -0.4903949             -13.3443
        68        2.0000           -0.4897217             -13.3260
        69        2.0000           -0.4836976             -13.1621
        70        2.0000           -0.4805453             -13.0763 (HOMO)
        71                         -0.2756099              -7.4997 (LUMO)
        72                         -0.2729797              -7.4282
        73                         -0.2696475              -7.3375
        74                         -0.2526369              -6.8746
        75                         -0.1475197              -4.0142
        76                         -0.1095874              -2.9820
        77                         -0.0892161              -2.4277
        78                         -0.0816692              -2.2223
        79                         -0.0805466              -2.1918
        80                         -0.0738151              -2.0086
        81                         -0.0687312              -1.8703
       ...                                ...                  ...
       122                          0.5680027              15.4561
      -------------------------------------------------------------
                  HL-Gap            0.2049354 Eh            5.5766 eV
             Fermi-level           -0.3780776 Eh          -10.2880 eV

     #   Z          covCN         q      C6AA      α(0)
     1   8 O        1.655    -0.453    21.908     6.319
     2   6 C        3.674     0.072    19.600     6.344
     3   1 H        0.924     0.047     2.353     2.399
     4   1 H        0.924     0.052     2.291     2.367
     5   6 C        3.768    -0.074    21.948     6.677
     6   1 H        0.924     0.128     1.551     1.948
     7   1 H        0.925     0.102     1.766     2.078
     8   7 N        3.623     0.157    18.597     6.405
     9   6 C        3.722    -0.110    22.727     6.808
    10   1 H        0.925     0.127     1.562     1.954
    11   1 H        0.925     0.076     2.024     2.225
    12   1 H        0.925     0.112     1.681     2.028
    13   6 C        3.736    -0.114    22.768     6.809
    14   1 H        0.925     0.131     1.524     1.931
    15   1 H        0.925     0.097     1.816     2.107
    16   1 H        0.925     0.082     1.962     2.190
    17   6 C        3.722    -0.105    22.629     6.793
    18   1 H        0.925     0.088     1.900     2.156
    19   1 H        0.925     0.085     1.931     2.173
    20   1 H        0.925     0.117     1.637     2.001
    21   1 H        0.804     0.329     0.639     1.255
    22   6 C        2.675     0.344    21.151     7.526
    23   8 O        0.860    -0.531    24.477     6.633
    24   7 N        2.644    -0.308    27.923     7.848
    25   1 H        0.860     0.235     0.944     1.522
    26   1 H        0.861     0.172     1.260     1.759
    27   7 N        2.645    -0.297    27.660     7.811
    28   1 H        0.861     0.179     1.219     1.729
    29   1 H        0.860     0.194     1.136     1.669
    30   6 C        2.675     0.345    21.146     7.525
    31   8 O        0.860    -0.521    24.258     6.604
    32   7 N        2.645    -0.297    27.655     7.810
    33   1 H        0.860     0.196     1.125     1.661
    34   1 H        0.860     0.183     1.197     1.714
    35   7 N        2.644    -0.301    27.762     7.825
    36   1 H        0.860     0.179     1.219     1.729
    37   1 H        0.860     0.237     0.935     1.515
    38   6 C        2.675     0.341    21.213     7.537
    39   8 O        0.861    -0.540    24.679     6.661
    40   7 N        2.644    -0.293    27.542     7.794
    41   1 H        0.860     0.200     1.105     1.647
    42   1 H        0.860     0.185     1.186     1.706
    43   7 N        2.644    -0.303    27.811     7.832
    44   1 H        0.861     0.181     1.209     1.723
    45   1 H        0.860     0.244     0.907     1.492
    46   6 C        2.675     0.341    21.215     7.537
    47   8 O        0.861    -0.528    24.411     6.624
    48   7 N        2.645    -0.288    27.418     7.777
    49   1 H        0.861     0.202     1.098     1.641
    50   1 H        0.861     0.188     1.172     1.696
    51   7 N        2.644    -0.307    27.912     7.846
    52   1 H        0.861     0.181     1.208     1.722
    53   1 H        0.860     0.243     0.913     1.497

 Mol. C6AA /au·bohr⁶  :      21796.706381
 Mol. C8AA /au·bohr⁸  :     454308.277968
 Mol. α(0) /au        :        220.579509


Wiberg/Mayer (AO) data.
largest (>0.10) Wiberg bond orders for each atom

 ---------------------------------------------------------------------------
     #   Z sym  total        # sym  WBO       # sym  WBO       # sym  WBO
 ---------------------------------------------------------------------------
     1   8 O    1.959 --     2 C    1.020    21 H    0.853
     2   6 C    3.966 --     1 O    1.020     5 C    0.994     3 H    0.964
                             4 H    0.960
     3   1 H    0.998 --     2 C    0.964
     4   1 H    0.997 --     2 C    0.960
     5   6 C    3.920 --     2 C    0.994     7 H    0.956     6 H    0.950
                             8 N    0.929
     6   1 H    0.984 --     5 C    0.950
     7   1 H    0.990 --     5 C    0.956
     8   7 N    3.821 --    17 C    0.964    13 C    0.956     9 C    0.956
                             5 C    0.929
     9   6 C    3.919 --    11 H    0.979    12 H    0.968    10 H    0.958
                             8 N    0.956
    10   1 H    0.984 --     9 C    0.958
    11   1 H    0.994 --     9 C    0.979
    12   1 H    0.987 --     9 C    0.968
    13   6 C    3.922 --    16 H    0.978    15 H    0.973    14 H    0.958
                             8 N    0.956
    14   1 H    0.983 --    13 C    0.958
    15   1 H    0.991 --    13 C    0.973
    16   1 H    0.993 --    13 C    0.978
    17   6 C    3.935 --    19 H    0.977    18 H    0.973    20 H    0.966
                             8 N    0.964
    18   1 H    0.992 --    17 C    0.973
    19   1 H    0.993 --    17 C    0.977
    20   1 H    0.986 --    17 C    0.966
    21   1 H    0.891 --     1 O    0.853
    22   6 C    3.959 --    23 O    1.525    24 N    1.235    27 N    1.190
    23   8 O    1.887 --    22 C    1.525    24 N    0.147    27 N    0.136
    24   7 N    3.328 --    22 C    1.235    26 H    0.951    25 H    0.884
                            23 O    0.147
    25   1 H    0.945 --    24 N    0.884
    26   1 H    0.970 --    24 N    0.951
    27   7 N    3.305 --    22 C    1.190    28 H    0.949    29 H    0.945
                            23 O    0.136
    28   1 H    0.968 --    27 N    0.949
    29   1 H    0.962 --    27 N    0.945
    30   6 C    3.959 --    31 O    1.507    35 N    1.245    32 N    1.193
    31   8 O    1.913 --    30 C    1.507    35 N    0.143    32 N    0.133
    32   7 N    3.305 --    30 C    1.193    34 H    0.947    33 H    0.944
                            31 O    0.133
    33   1 H    0.961 --    32 N    0.944
    34   1 H    0.966 --    32 N    0.947
    35   7 N    3.337 --    30 C    1.245    36 H    0.948    37 H    0.887
                            31 O    0.143
    36   1 H    0.967 --    35 N    0.948
    37   1 H    0.944 --    35 N    0.887
    38   6 C    3.960 --    39 O    1.477    43 N    1.267    40 N    1.205
    39   8 O    1.890 --    38 C    1.477    43 N    0.146    40 N    0.127
    40   7 N    3.316 --    38 C    1.205    42 H    0.947    41 H    0.943
                            39 O    0.127
    41   1 H    0.960 --    40 N    0.943
    42   1 H    0.965 --    40 N    0.947
    43   7 N    3.354 --    38 C    1.267    44 H    0.948    45 H    0.870
                            39 O    0.146
    44   1 H    0.967 --    43 N    0.948
    45   1 H    0.940 --    43 N    0.870
    46   6 C    3.960 --    47 O    1.475    51 N    1.258    48 N    1.216
    47   8 O    1.917 --    46 C    1.475    51 N    0.140    48 N    0.131
    48   7 N    3.331 --    46 C    1.216    50 H    0.946    49 H    0.942
                            47 O    0.131
    49   1 H    0.959 --    48 N    0.942
    50   1 H    0.964 --    48 N    0.946
    51   7 N    3.342 --    46 C    1.258    52 H    0.948    53 H    0.869
                            47 O    0.140
    52   1 H    0.967 --    51 N    0.948
    53   1 H    0.941 --    51 N    0.869
 ---------------------------------------------------------------------------

Topologies differ in total number of bonds
Writing topology from bond orders to xtbtopo.mol

molecular dipole:
                 x           y           z       tot (Debye)
 q only:       -0.447      -0.247      -0.553
   full:       -0.467       0.573      -0.912       2.984
molecular quadrupole (traceless):
                xx          xy          yy          xz          yz          zz
 q only:       14.161       2.370       9.751       2.189      10.168     -23.912
  q+dip:       20.663       2.472       9.554       3.753      13.681     -30.217
   full:       20.727       2.151       8.843       4.209      13.282     -29.570

           -------------------------------------------------
          |               Frequency Printout                |
           -------------------------------------------------
 projected vibrational frequencies (cm⁻¹)
eigval :       -0.00    -0.00    -0.00    -0.00     0.00     0.00
eigval :       15.74    17.03    30.12    31.91    36.65    41.30
eigval :       45.90    47.58    57.45    62.19    63.44    70.65
eigval :       73.73    81.94    91.92    98.53   103.92   112.86
eigval :      121.61   122.45   145.89   153.85   168.48   175.18
eigval :      190.06   198.14   207.41   257.13   280.98   293.87
eigval :      299.05   323.10   327.33   344.24   359.25   373.99
eigval :      387.37   394.47   423.19   428.37   438.69   462.26
eigval :      462.88   464.44   467.79   471.98   475.71   476.96
eigval :      481.44   483.32   491.49   537.87   542.80   547.33
eigval :      554.09   559.72   618.39   662.75   672.70   674.28
eigval :      678.45   699.00   712.30   731.28   761.82   770.02
eigval :      917.24   923.67   961.90   965.67   968.12   969.75
eigval :      991.29  1003.95  1008.89  1010.59  1017.43  1020.24
eigval :     1024.22  1033.36  1037.73  1084.30  1087.22  1088.77
eigval :     1089.25  1093.06  1099.24  1129.79  1156.22  1222.06
eigval :     1246.38  1273.12  1313.43  1330.25  1347.07  1352.05
eigval :     1355.38  1358.83  1368.68  1385.02  1403.93  1409.27
eigval :     1416.93  1435.60  1441.33  1446.18  1451.08  1454.00
eigval :     1455.88  1458.34  1461.34  1465.52  1470.05  1479.88
eigval :     1483.68  1499.87  1504.81  1514.31  1515.23  1659.95
eigval :     1689.42  1705.69  1717.40  2945.37  2973.87  2985.85
eigval :     3023.86  3036.62  3039.61  3042.47  3044.29  3047.02
eigval :     3050.71  3060.81  3062.56  3065.72  3176.91  3229.62
eigval :     3294.24  3309.30  3417.37  3491.56  3494.39  3497.66
eigval :     3504.07  3523.29  3532.11  3535.64  3538.84  3553.91
eigval :     3557.92  3563.02  3570.30
 reduced masses (amu)
   1: 12.56   2: 12.74   3: 12.79   4: 12.24   5: 12.17   6: 12.60   7: 12.43   8: 11.92
   9: 12.36  10: 12.48  11: 12.35  12: 12.77  13: 12.41  14: 12.39  15: 12.49  16: 12.10
  17: 12.32  18: 13.08  19: 12.46  20: 12.93  21: 12.77  22: 12.08  23: 11.41  24: 12.73
  25: 11.50  26: 12.66  27: 12.49  28: 12.45  29: 12.94  30: 11.69  31: 12.18  32: 11.56
  33:  4.46  34:  3.75  35:  2.64  36:  7.00  37:  3.49  38:  2.54  39:  6.29  40:  3.20
  41:  3.11  42:  7.13  43:  3.16  44:  3.66  45:  3.28  46:  8.49  47:  3.27  48:  5.75
  49:  7.37  50:  4.57  51:  4.63  52:  6.67  53:  2.77  54:  3.18  55:  7.48  56:  8.10
  57:  8.62  58: 11.03  59:  8.22  60: 11.20  61: 11.48  62: 11.87  63:  3.43  64:  9.64
  65: 11.33  66: 10.47  67: 10.03  68:  3.93  69:  3.82  70:  1.99  71:  8.84  72:  2.45
  73:  7.76  74:  7.34  75:  5.01  76:  4.83  77:  4.89  78:  4.80  79:  7.34  80:  9.03
  81:  9.20  82:  7.34  83:  9.21  84:  6.09  85:  9.23  86:  7.57  87:  3.33  88:  8.95
  89:  7.24  90:  8.68  91:  8.60  92:  8.51  93:  4.29  94:  7.78  95:  2.81  96:  5.47
  97:  7.28  98:  8.20  99:  6.65 100:  3.23 101:  4.34 102:  4.02 103:  4.77 104:  5.36
 105:  5.91 106:  4.65 107:  2.52 108:  2.55 109:  2.01 110:  2.65 111:  1.61 112:  3.18
 113:  3.37 114:  1.71 115:  1.76 116:  2.67 117:  2.11 118:  2.89 119:  1.68 120:  1.62
 121:  1.70 122:  7.73 123:  8.22 124:  9.51 125:  9.36 126: 12.35 127: 12.71 128: 12.71
 129: 12.78 130:  1.83 131:  1.61 132:  1.73 133:  1.77 134:  1.67 135:  1.80 136:  1.84
 137:  1.57 138:  1.63 139:  1.78 140:  1.80 141:  1.75 142:  1.72 143:  1.81 144:  1.79
 145:  1.75 146:  1.74 147:  1.87 148:  1.46 149:  1.45 150:  1.45 151:  1.45 152:  1.92
 153:  1.93 154:  1.90 155:  1.91 156:  2.17 157:  2.17 158:  2.17 159:  2.19
 IR intensities (km·mol⁻¹)
   1:  1.53   2:  1.96   3:  1.41   4:  1.17   5:  0.17   6:  2.59   7:  0.19   8:  0.01
   9:  2.53  10:  0.68  11:  3.19  12:  0.06  13:  2.94  14:  5.00  15:  4.13  16:  3.77
  17:  1.88  18:  2.87  19:  4.01  20:  6.33  21:  7.31  22:  0.67  23:  2.16  24:  2.84
  25:  9.01  26: 34.58  27:  6.61  28: 17.98  29:  8.80  30: 12.94  31: 24.85  32: 37.58
  33:167.98  34:  3.92  35:128.97  36:  0.17  37:  0.39  38: 47.33  39: 14.13  40:  0.98
  41: 55.84  42: 10.10  43:186.93  44:153.32  45:417.98  46: 19.27  47:363.09  48: 11.21
  49: 27.11  50: 11.18  51:  4.40  52:  6.75  53: 19.25  54:  6.22  55: 19.08  56: 15.10
  57: 48.12  58: 27.33  59:  9.89  60: 25.51  61:  3.93  62: 41.81  63:144.92  64:  8.96
  65: 36.23  66: 18.69  67: 78.23  68: 87.85  69:212.28  70:172.83  71: 27.33  72:379.17
  73:  3.37  74:  8.93  75:  8.23  76:  0.91  77:  1.25  78:  2.93  79: 33.93  80: 20.70
  81: 14.17  82: 40.59  83:  3.27  84: 23.74  85:  0.21  86:  7.25  87:  2.30  88:  1.17
  89: 15.15  90:  1.73  91:  1.85  92:  0.77  93: 34.09  94: 30.08  95: 17.36  96:  6.59
  97:  3.45  98:  6.31  99:  3.88 100: 30.23 101: 55.95 102: 21.56 103:168.27 104:108.28
 105:162.02 106:  7.68 107: 20.74 108:  7.64 109:  5.02 110: 16.43 111:  3.86 112: 13.83
 113:  3.03 114:  1.56 115:  7.89 116:  9.71 117:  4.18 118: 10.78 119:  6.17 120: 44.63
 121: 14.00 122:542.00 123:627.87 124:620.67 125:253.56 126:334.79 127:684.06 128:******
 129:752.40 130: 15.57 131: 43.11 132:  0.70 133:  5.05 134: 16.49 135:  0.91 136:  4.43
 137: 23.44 138: 20.79 139: 40.48 140:  5.17 141:  3.09 142:  1.75 143: 40.59 144:******
 145:****** 146:309.05 147:277.89 148: 14.59 149: 19.88 150: 14.90 151: 22.59 152: 13.51
 153: 12.23 154: 19.06 155: 14.53 156: 11.27 157: 15.01 158:  7.98 159: 17.64
 Raman intensities (amu)
Molecule has no symmetry elements
It seems to be the C1 point group
   1:  0.00   2:  0.00   3:  0.00   4:  0.00   5:  0.00   6:  0.00   7:  0.00   8:  0.00
   9:  0.00  10:  0.00  11:  0.00  12:  0.00  13:  0.00  14:  0.00  15:  0.00  16:  0.00
  17:  0.00  18:  0.00  19:  0.00  20:  0.00  21:  0.00  22:  0.00  23:  0.00  24:  0.00
  25:  0.00  26:  0.00  27:  0.00  28:  0.00  29:  0.00  30:  0.00  31:  0.00  32:  0.00
  33:  0.00  34:  0.00  35:  0.00  36:  0.00  37:  0.00  38:  0.00  39:  0.00  40:  0.00
  41:  0.00  42:  0.00  43:  0.00  44:  0.00  45:  0.00  46:  0.00  47:  0.00  48:  0.00
  49:  0.00  50:  0.00  51:  0.00  52:  0.00  53:  0.00  54:  0.00  55:  0.00  56:  0.00
  57:  0.00  58:  0.00  59:  0.00  60:  0.00  61:  0.00  62:  0.00  63:  0.00  64:  0.00
  65:  0.00  66:  0.00  67:  0.00  68:  0.00  69:  0.00  70:  0.00  71:  0.00  72:  0.00
  73:  0.00  74:  0.00  75:  0.00  76:  0.00  77:  0.00  78:  0.00  79:  0.00  80:  0.00
  81:  0.00  82:  0.00  83:  0.00  84:  0.00  85:  0.00  86:  0.00  87:  0.00  88:  0.00
  89:  0.00  90:  0.00  91:  0.00  92:  0.00  93:  0.00  94:  0.00  95:  0.00  96:  0.00
  97:  0.00  98:  0.00  99:  0.00 100:  0.00 101:  0.00 102:  0.00 103:  0.00 104:  0.00
 105:  0.00 106:  0.00 107:  0.00 108:  0.00 109:  0.00 110:  0.00 111:  0.00 112:  0.00
 113:  0.00 114:  0.00 115:  0.00 116:  0.00 117:  0.00 118:  0.00 119:  0.00 120:  0.00
 121:  0.00 122:  0.00 123:  0.00 124:  0.00 125:  0.00 126:  0.00 127:  0.00 128:  0.00
 129:  0.00 130:  0.00 131:  0.00 132:  0.00 133:  0.00 134:  0.00 135:  0.00 136:  0.00
 137:  0.00 138:  0.00 139:  0.00 140:  0.00 141:  0.00 142:  0.00 143:  0.00 144:  0.00
 145:  0.00 146:  0.00 147:  0.00 148:  0.00 149:  0.00 150:  0.00 151:  0.00 152:  0.00
 153:  0.00 154:  0.00 155:  0.00 156:  0.00 157:  0.00 158:  0.00 159:  0.00
 output can be read by thermo (or use thermo option).
 writing <g98.out> molden fake output.
 recommended (thermochemical) frequency scaling factor: 1.0
           -------------------------------------------------
          |             Thermodynamic Functions             |
           -------------------------------------------------

c1  symmetry found (for desy threshold:  0.10E+00) used in thermo

          ...................................................
          :                      SETUP                      :
          :.................................................:
          :  # frequencies                         153      :
          :  # imaginary freq.                       0      :
          :  linear?                             false      :
          :  only rotor calc.                    false      :
          :  symmetry                               c1      :
          :  rotational number                       1      :
          :  scaling factor                  1.0000000      :
          :  rotor cutoff                   50.0000000 cm⁻¹ :
          :  imag. cutoff                  -20.0000000 cm⁻¹ :
          :.................................................:

    mode    ω/cm⁻¹     T·S(HO)/kcal·mol⁻¹    T·S(FR)/kcal·mol⁻¹   T·S(vib)
   ------------------------------------------------------------------------
       1     15.74    -2.11972 (  0.97%)    -1.39880 ( 99.03%)    -1.40581
       2     17.03    -2.07325 (  1.33%)    -1.37556 ( 98.67%)    -1.38482
       3     30.12    -1.73563 ( 11.64%)    -1.20662 ( 88.36%)    -1.26819
       4     31.91    -1.70146 ( 14.24%)    -1.18950 ( 85.76%)    -1.26238
       5     36.65    -1.61964 ( 22.40%)    -1.14851 ( 77.60%)    -1.25406
       6     41.30    -1.54910 ( 31.77%)    -1.11314 ( 68.23%)    -1.25162
       7     45.90    -1.48679 ( 41.52%)    -1.08187 ( 58.48%)    -1.25001
       8     47.58    -1.46558 ( 45.05%)    -1.07122 ( 54.95%)    -1.24889
       9     57.45    -1.35451 ( 63.54%)    -1.01540 ( 36.46%)    -1.23086
      10     62.19    -1.30785 ( 70.53%)    -0.99191 ( 29.47%)    -1.21473
      11     63.44    -1.29610 ( 72.16%)    -0.98598 ( 27.84%)    -1.20976
      12     70.65    -1.23292 ( 79.94%)    -0.95412 ( 20.06%)    -1.17700
      13     73.73    -1.20790 ( 82.54%)    -0.94149 ( 17.46%)    -1.16139
      14     81.94    -1.14603 ( 87.83%)    -0.91019 ( 12.17%)    -1.11731
      15     91.92    -1.07893 ( 91.95%)    -0.87615 (  8.05%)    -1.06261
      16     98.53    -1.03849 ( 93.78%)    -0.85557 (  6.22%)    -1.02712
      17    103.92    -1.00757 ( 94.91%)    -0.83980 (  5.09%)    -0.99904
      18    112.86    -0.95976 ( 96.29%)    -0.81535 (  3.71%)    -0.95440
      19    121.61    -0.91669 ( 97.22%)    -0.79323 (  2.78%)    -0.91326
      20    122.45    -0.91273 ( 97.30%)    -0.79120 (  2.70%)    -0.90945
      21    145.89    -0.81250 ( 98.64%)    -0.73931 (  1.36%)    -0.81150
      22    153.85    -0.78237 ( 98.90%)    -0.72358 (  1.10%)    -0.78172
      23    168.48    -0.73116 ( 99.23%)    -0.69666 (  0.77%)    -0.73090
      24    175.18    -0.70934 ( 99.34%)    -0.68511 (  0.66%)    -0.70918
      25    190.06    -0.66405 ( 99.52%)    -0.66096 (  0.48%)    -0.66403
      26    198.14    -0.64110 ( 99.60%)    -0.64863 (  0.40%)    -0.64113
      27    207.41    -0.61608 ( 99.66%)    -0.63509 (  0.34%)    -0.61614
      28    257.13    -0.50124 ( 99.86%)    -0.57143 (  0.14%)    -0.50134
      29    280.98    -0.45549 ( 99.90%)    -0.54516 (  0.10%)    -0.45558
      30    293.87    -0.43278 ( 99.92%)    -0.53186 (  0.08%)    -0.43287
      31    299.05    -0.42402 ( 99.92%)    -0.52669 (  0.08%)    -0.42410
   ------------------------------------------------------------------------

   temp. (K)  partition function   enthalpy   heat capacity  entropy
                                   cal/mol     cal/K/mol   cal/K/mol   J/K/mol
 298.15  VIB  0.266E+17            19383.616    104.916    127.059
         ROT  0.119E+08              888.752      2.981     35.360
         INT  0.317E+24            20272.368    107.896    162.419
         TR   0.618E+28             1481.254      4.968     43.384
         TOT                       21753.6224   112.8646   205.8034   861.0815

       T/K    H(0)-H(T)+PV         H(T)/Eh          T*S/Eh         G(T)/Eh
   ------------------------------------------------------------------------
    298.15    0.346666E-01    0.474127E+00    0.977838E-01    0.376343E+00
   ------------------------------------------------------------------------

         :::::::::::::::::::::::::::::::::::::::::::::::::::::
         ::                  THERMODYNAMIC                  ::
         :::::::::::::::::::::::::::::::::::::::::::::::::::::
         :: total free energy         -80.559122251843 Eh   ::
         ::.................................................::
         :: total energy              -80.935465505439 Eh   ::
         :: zero point energy           0.439460493729 Eh   ::
         :: G(RRHO) w/o ZPVE           -0.063117240133 Eh   ::
         :: G(RRHO) contrib.            0.376343253596 Eh   ::
         :::::::::::::::::::::::::::::::::::::::::::::::::::::

           -------------------------------------------------
          | TOTAL ENERGY              -80.935465505439 Eh   |
          | TOTAL ENTHALPY            -80.461338407825 Eh   |
          | TOTAL FREE ENERGY         -80.559122251843 Eh   |
          | GRADIENT NORM               0.000050230079 Eh/α |
          | HOMO-LUMO GAP               5.576574984687 eV   |
           -------------------------------------------------

------------------------------------------------------------------------
 * finished run on 2024/01/10 at 18:25:29.048     
------------------------------------------------------------------------
 total:
 * wall-time:     0 d,  0 h,  0 min, 14.816 sec
 *  cpu-time:     0 d,  0 h,  0 min, 14.705 sec
 * ratio c/w:     0.992 speedup
 SCF:
 * wall-time:     0 d,  0 h,  0 min,  0.098 sec
 *  cpu-time:     0 d,  0 h,  0 min,  0.058 sec
 * ratio c/w:     0.594 speedup
 analytical hessian:
 * wall-time:     0 d,  0 h,  0 min, 14.691 sec
 *  cpu-time:     0 d,  0 h,  0 min, 14.620 sec
 * ratio c/w:     0.995 speedup

