21
 energy: -24.417616122432 gnorm: 0.045037129483 xtb: 6.6.1 (unknown-commit)
O            0.24896000000000       -0.67940000000000       -1.91335000000000
C           -0.42500000000000       -1.83606000000000       -2.38423000000000
H            0.23958000000000       -2.70800000000000       -2.39782000000000
H           -1.28796000000000       -2.09251000000000       -1.75765000000000
C           -0.98801000000000       -1.55909000000000       -3.76945000000000
H           -1.74583000000000       -0.77641000000000       -3.72727000000000
H           -1.44886000000000       -2.47396000000000       -4.14498000000000
N            0.02029000000000       -1.10859000000000       -4.83268000000000
C            1.30083000000000       -1.89635000000000       -4.74515000000000
H            1.93017000000000       -1.62476000000000       -5.59108000000000
H            1.06883000000000       -2.95969000000000       -4.78509000000000
H            1.80470000000000       -1.64699000000000       -3.81452000000000
C            0.33077000000000        0.36698000000000       -4.68532000000000
H            0.72947000000000        0.54151000000000       -3.69137000000000
H           -0.59117000000000        0.92934000000000       -4.82426000000000
H            1.05222000000000        0.64102000000000       -5.45372000000000
C           -0.60585000000000       -1.33203000000000       -6.18697000000000
H            0.05574000000000       -0.92797000000000       -6.95151000000000
H           -1.56615000000000       -0.81950000000000       -6.22038000000000
H           -0.74661000000000       -2.40034000000000       -6.34402000000000
H            0.45164000000000       -0.76853000000000       -0.97570000000000
21
 energy: -24.419999378250 gnorm: 0.020078991877 xtb: 6.6.1 (unknown-commit)
O            0.26353176314826       -0.68033403108218       -1.93038307026991
C           -0.41773641913590       -1.82563520699370       -2.39629503628952
H            0.24813091551128       -2.69790455025130       -2.39933600174651
H           -1.27597055366770       -2.06598792731407       -1.75536619124029
C           -0.98593561724993       -1.55905643937285       -3.78520830844987
H           -1.73928036186711       -0.77286092538604       -3.72398930891053
H           -1.45525245511606       -2.47696321720687       -4.14296875497688
N            0.01478186783136       -1.11615024692540       -4.83480379179871
C            1.28665171340557       -1.88834870545370       -4.74529259365908
H            1.92584126893397       -1.62294547712927       -5.58388200467794
H            1.07105661854327       -2.95358625484074       -4.78333613666022
H            1.79545026708021       -1.64188229209718       -3.81786466482162
C            0.32057779862599        0.33778412268672       -4.67735887274585
H            0.71045085401581        0.51457241671268       -3.67939741291321
H           -0.58847516210520        0.91710228260180       -4.81808732969207
H            1.05168409581815        0.63203005937239       -5.42671859231736
C           -0.59934611967675       -1.32822273556943       -6.17927826837269
H            0.05670353926875       -0.92586529595506       -6.94697947605671
H           -1.55968671207077       -0.82050539678943       -6.22730603417271
H           -0.74414221953187       -2.39169751682396       -6.35397527954225
H            0.44872491823866       -0.76487266218242       -0.98869287068605
21
 energy: -24.420529334759 gnorm: 0.002802506141 xtb: 6.6.1 (unknown-commit)
O            0.28216618982116       -0.68189906528880       -1.94203140161355
C           -0.41100411054966       -1.81889392477102       -2.39999295178194
H            0.24813595160741       -2.69747913150149       -2.40085836918936
H           -1.26918143567133       -2.04579988945160       -1.75374069495410
C           -0.98156162201647       -1.55724683081180       -3.79431114854049
H           -1.73520675862812       -0.77174300700924       -3.72149131946923
H           -1.45784376125833       -2.47780997773825       -4.13610479972680
N            0.01019975682439       -1.12102340823327       -4.83777525788636
C            1.27596980920367       -1.88366007555714       -4.74686029510214
H            1.92094734222052       -1.62142612194340       -5.58245241085171
H            1.07469586407846       -2.95256716147121       -4.78153400564950
H            1.78946343862479       -1.63624022677861       -3.82148611725317
C            0.31109416786419        0.31529439336411       -4.67196252937786
H            0.68917752831209        0.49536221071555       -3.66792661690580
H           -0.58940062009155        0.90759745192764       -4.81852764574502
H            1.05551883439119        0.62497940313206       -5.40292612954166
C           -0.59439051830081       -1.32524649689734       -6.17601568971668
H            0.06065617536621       -0.92174292168935       -6.94478688631813
H           -1.55538122615908       -0.81884417564237       -6.23416809968032
H           -0.74297370608041       -2.38657942820500       -6.36604037893510
H            0.44667870044169       -0.75636161614947       -0.99552725176108
21
 energy: -24.420555730726 gnorm: 0.001704801380 xtb: 6.6.1 (unknown-commit)
O            0.28964708707586       -0.68447983335490       -1.94261583731968
C           -0.40954474775735       -1.81874531618042       -2.39903342910438
H            0.24515204725663       -2.70069132916972       -2.40068014938330
H           -1.26807162416189       -2.04174140458682       -1.75270063636684
C           -0.98201001841457       -1.55759393206962       -3.79432752805449
H           -1.73694478441975       -0.77329217777992       -3.72218224008316
H           -1.45802646268235       -2.47893776674073       -4.13421580786327
N            0.00954159829915       -1.12106457720279       -4.83798955257078
C            1.27597010637675       -1.88406263743692       -4.74717100826698
H            1.92030502107020       -1.62226971247314       -5.58379280090270
H            1.07511635914656       -2.95325486470904       -4.78061181002257
H            1.78979972198545       -1.63534187986595       -3.82192513902139
C            0.30978311437506        0.31509944771138       -4.67174571226178
H            0.68204575115290        0.49637796611497       -3.66538152389659
H           -0.59004268949550        0.90763121614369       -4.82381499933995
H            1.05910483679859        0.62503508183659       -5.39769653181235
C           -0.59454785657333       -1.32495261031954       -6.17696898346602
H            0.06186836985268       -0.92039557511261       -6.94462019651351
H           -1.55561255232916       -0.81808789975056       -6.23585337459925
H           -0.74306015864425       -2.38627029538758       -6.36844428145726
H            0.44728688108831       -0.75429189966637       -0.99474845769378
21
 energy: -24.420587349675 gnorm: 0.002805416354 xtb: 6.6.1 (unknown-commit)
O            0.32025855055376       -0.69830548052568       -1.94773308336435
C           -0.40531832413968       -1.81988375985697       -2.39619810670592
H            0.23186210888075       -2.71483964107924       -2.40104532880847
H           -1.26432149712533       -2.02450643549722       -1.74630222850443
C           -0.98243051444951       -1.55827505344006       -3.79403558618814
H           -1.74181572301605       -0.77808040357396       -3.72447660978858
H           -1.45517221573950       -2.48263626527463       -4.12946162458207
N            0.00750419713020       -1.12038677074190       -4.83861905265440
C            1.27595072535069       -1.88424641380277       -4.74774375554865
H            1.91717367817555       -1.62528763833399       -5.58824969385882
H            1.07477021985254       -2.95362945978204       -4.77580177340144
H            1.79055998956213       -1.63014665837100       -3.82366242737651
C            0.30479900742416        0.31585910934371       -4.67075651848265
H            0.65220992247590        0.50107877904538       -3.65515016021368
H           -0.59169767135556        0.90825082652364       -4.84811351400059
H            1.07398701723736        0.62335284082889       -5.37689876417960
C           -0.59508332460011       -1.32384936883817       -6.17974961964820
H            0.06424213294881       -0.91584676162466       -6.94431203219429
H           -1.55651814416391       -0.81680818364072       -6.23995670032313
H           -0.74201867478919       -2.38498686866178       -6.37415443264297
H            0.44881853978699       -0.74815639269682       -0.99409898753313
21
 energy: -24.420595583338 gnorm: 0.001481613943 xtb: 6.6.1 (unknown-commit)
O            0.31918108348794       -0.69920614760763       -1.94841145003740
C           -0.40590365288671       -1.82045447369875       -2.39734924436561
H            0.23180557896682       -2.71480625371560       -2.40174313579359
H           -1.26435363581004       -2.02519119639259       -1.74661167319771
C           -0.98257979007133       -1.55814903076225       -3.79410788713008
H           -1.74117752612223       -0.77726669228576       -3.72393364681325
H           -1.45534039709577       -2.48203132680064       -4.13109749717331
N            0.00770428395161       -1.12009571792890       -4.83816946291979
C            1.27584619108700       -1.88349559236445       -4.74698814619412
H            1.91736786160883       -1.62490016269939       -5.58704845524422
H            1.07440122040111       -2.95270439811925       -4.77507904542331
H            1.79016878587469       -1.62955946875909       -3.82302828523870
C            0.30525972961644        0.31654543201747       -4.67102343055062
H            0.65341969711751        0.50160716485180       -3.65632342138131
H           -0.59075226212033        0.90877808083439       -4.84823595279539
H            1.07339436597517        0.62311244443168       -5.37810402180053
C           -0.59505260763687       -1.32410240267734       -6.17882687745356
H            0.06310767928346       -0.91629808447387       -6.94399822689785
H           -1.55677591666655       -0.81804944669711       -6.23854756342064
H           -0.74126762107867       -2.38534312738227       -6.37230951584147
H            0.44930693211791       -0.74971959977045       -0.99558306032753
21
 energy: -24.420600118473 gnorm: 0.000770250455 xtb: 6.6.1 (unknown-commit)
O            0.32260132868164       -0.70385201349898       -1.95186918523241
C           -0.40667213673802       -1.82236217787106       -2.39959180564951
H            0.22871878823944       -2.71825352932992       -2.40349511350656
H           -1.26438870765789       -2.02385561131049       -1.74637569849013
C           -0.98280930873148       -1.55749387968401       -3.79398269887533
H           -1.73945044070553       -0.77489466842124       -3.72219273996274
H           -1.45666708663561       -2.47994436392675       -4.13395930538572
N            0.00779303399944       -1.11954221285012       -4.83754864014415
C            1.27561179520577       -1.88140917591453       -4.74505704419599
H            1.91763403817397       -1.62387422681202       -5.58450896474043
H            1.07434979665186       -2.95052276066993       -4.77233046481829
H            1.78924326078093       -1.62678529704612       -3.82139023485532
C            0.30523104447987        0.31792770823841       -4.67141892416213
H            0.65108702716204        0.50316876430156       -3.65685159525387
H           -0.58943928520579        0.90976600236908       -4.85241612502339
H            1.07454491201000        0.62215781222287       -5.37771495512730
C           -0.59493917098260       -1.32478638885093       -6.17735579629047
H            0.06051519923828       -0.91621673483509       -6.94360710835352
H           -1.55795513401767       -0.82183998557047       -6.23599212880847
H           -0.73859128548354       -2.38640554084946       -6.36959646939387
H            0.45134233153490       -0.75231171969082       -0.99926500173040
21
 energy: -24.420601773842 gnorm: 0.000310245067 xtb: 6.6.1 (unknown-commit)
O            0.32552240176675       -0.70565782921842       -1.95190850770618
C           -0.40646469181570       -1.82275807398002       -2.39936774730478
H            0.22705270617923       -2.72007924543961       -2.40393707498082
H           -1.26419330981797       -2.02282672516989       -1.74589979465871
C           -0.98315373976335       -1.55697414591819       -3.79378749581729
H           -1.73945126501243       -0.77404342974092       -3.72180811622340
H           -1.45797000651089       -2.47897388490793       -4.13360178303831
N            0.00756435613347       -1.11940337830191       -4.83764001360209
C            1.27564875025159       -1.88116166481735       -4.74467477606506
H            1.91769320692434       -1.62375233287326       -5.58431980954408
H            1.07482410773479       -2.95043715013315       -4.77142203371782
H            1.78902221584820       -1.62582547506302       -3.82088628379462
C            0.30462504592664        0.31817243560727       -4.67190542338824
H            0.64873056036286        0.50414792323466       -3.65661701852155
H           -0.58996535729246        0.90991237467723       -4.85490116232616
H            1.07550722443883        0.62216484491177       -5.37683305787848
C           -0.59482077898350       -1.32512014271106       -6.17766094596897
H            0.06067715218703       -0.91563453412475       -6.94360640147970
H           -1.55835104120459       -0.82291391551586       -6.23647805594995
H           -0.73750547032787       -2.38688734503707       -6.37033844113532
H            0.45276793297501       -0.75327830547852       -0.99892605689845
21
 energy: -24.420602911675 gnorm: 0.000168886525 xtb: 6.6.1 (unknown-commit)
O            0.32899501292590       -0.70818134934811       -1.95281001426241
C           -0.40642012336194       -1.82347779311091       -2.39952041160784
H            0.22474302138808       -2.72249539634779       -2.40507642640078
H           -1.26401941554609       -2.02156936552902       -1.74542110820625
C           -0.98377839910343       -1.55596639172578       -3.79361521447120
H           -1.73883129395885       -0.77189333494877       -3.72079583931570
H           -1.46058121865237       -2.47690531570196       -4.13346988946568
N            0.00722699755198       -1.11922248623344       -4.83770947735041
C            1.27559113070715       -1.88053919314740       -4.74369308433834
H            1.91793836895039       -1.62318865975674       -5.58325333887274
H            1.07542494887293       -2.94997774350582       -4.76998086483634
H            1.78835523719546       -1.62440941283727       -3.81963621874965
C            0.30379189175575        0.31839029455908       -4.67241109069375
H            0.64614171143372        0.50519464896655       -3.65649453053983
H           -0.59060840235334        0.90996345818721       -4.85747998025746
H            1.07613108406848        0.62223117258746       -5.37594996866566
C           -0.59449190954997       -1.32587512522228       -6.17791580365487
H            0.06055737414141       -0.91478116491663       -6.94356290888675
H           -1.55906965834476       -0.82549397753551       -6.23697367828015
H           -0.73504475287695       -2.38791876358834       -6.37109680489089
H            0.45570839475647       -0.75521410084453       -0.99965334625329
21
 energy: -24.420603604729 gnorm: 0.000188497784 xtb: 6.6.1 (unknown-commit)
O            0.33126259856837       -0.71034773857207       -1.95333204992860
C           -0.40662211973360       -1.82413116086550       -2.39979761378493
H            0.22280076005939       -2.72433376597723       -2.40609490027098
H           -1.26407647910896       -2.02079507433876       -1.74515826124911
C           -0.98436496773845       -1.55503976720550       -3.79348467510811
H           -1.73815480107965       -0.76983861433620       -3.71982559657133
H           -1.46278143259244       -2.47496497666373       -4.13375267022848
N            0.00700877151866       -1.11892247348605       -4.83761114801287
C            1.27554625775189       -1.87993317266764       -4.74270057568957
H            1.91823198052721       -1.62259326613864       -5.58202059212782
H            1.07573296695058       -2.94943902758923       -4.76876327812375
H            1.78766340625303       -1.62326782074083       -3.81841628634014
C            0.30317884888003        0.31888087233286       -4.67311888168289
H            0.64467177528349        0.50626561664277       -3.65701085100709
H           -0.59116672436792        0.91020497935555       -4.85936461911355
H            1.07616002634585        0.62240846271595       -5.37607968059891
C           -0.59411877820811       -1.32660298788747       -6.17794798219212
H            0.06032881702104       -0.91420648995614       -6.94343803637547
H           -1.55962716298571       -0.82802304232041       -6.23713014382978
H           -0.73258459165812       -2.38891151793216       -6.37118468711642
H            0.45867084831343       -0.75773903436958       -1.00028747064811
21
 energy: -24.420604065734 gnorm: 0.000115074996 xtb: 6.6.1 (unknown-commit)
O            0.33285095132974       -0.71192470881940       -1.95408130866396
C           -0.40691599733953       -1.82458101996597       -2.40012038926775
H            0.22115593656229       -2.72570828894419       -2.40685982792048
H           -1.26437163606530       -2.01996045970386       -1.74504830556575
C           -0.98475835648621       -1.55426863396166       -3.79349255086535
H           -1.73764073830374       -0.76827324233529       -3.71914641154389
H           -1.46420560026197       -2.47352948704670       -4.13403705619658
N            0.00682503466656       -1.11867289980337       -4.83755515355771
C            1.27549414504193       -1.87929858188499       -4.74181276217905
H            1.91849376133748       -1.62203254913243       -5.58087865129519
H            1.07585572440888       -2.94881649614140       -4.76774618272345
H            1.78711273420318       -1.62231532424678       -3.81736622479490
C            0.30272827662086        0.31919148724906       -4.67345614216927
H            0.64379144715394        0.50706902188553       -3.65730242242476
H           -0.59160832041030        0.91026364003807       -4.86039091049082
H            1.07589385520523        0.62256818864105       -5.37623838151830
C           -0.59382362930417       -1.32722839552094       -6.17794742466766
H            0.06013270107785       -0.91402607055435       -6.94337658281700
H           -1.55998420207957       -0.83000603023423       -6.23733489201871
H           -0.73076049233041       -2.38972956772982       -6.37109969254685
H            0.46149440497326       -0.76005058178832       -1.00122872677258
21
 energy: -24.420604387623 gnorm: 0.000076756425 xtb: 6.6.1 (unknown-commit)
O            0.33404034758226       -0.71321633197835       -1.95453392221762
C           -0.40729104893871       -1.82485943802524       -2.40035769263132
H            0.21960303732183       -2.72677476476316       -2.40729289442594
H           -1.26476933936771       -2.01909691285851       -1.74495035456672
C           -0.98513550826393       -1.55376779893726       -3.79352760075894
H           -1.73742978388585       -0.76726953947057       -3.71879859988512
H           -1.46520175302992       -2.47260378834503       -4.13433933410260
N            0.00669281390984       -1.11841525439103       -4.83740847566602
C            1.27545961292519       -1.87878161061332       -4.74104624059483
H            1.91871324762091       -1.62157128553306       -5.57989395031087
H            1.07601975757655       -2.94833215998702       -4.76681561391806
H            1.78660830853432       -1.62144636987216       -3.81647804476855
C            0.30226590509306        0.31960448155533       -4.67391179401778
H            0.64316012130398        0.50779033650938       -3.65782062932312
H           -0.59210009711723        0.91047450997045       -4.86120213246747
H            1.07546305208219        0.62284071984949       -5.37669238908712
C           -0.59348886427254       -1.32765232261550       -6.17789160404373
H            0.06022530440476       -0.91411585049221       -6.94330488574500
H           -1.56004171225964       -0.83129314481540       -6.23752769046774
H           -0.72945540122911       -2.39030683574137       -6.37073122350963
H            0.46442200000978       -0.76253663944546       -1.00199492749183
21
 energy: -24.420604600939 gnorm: 0.000073694778 xtb: 6.6.1 (unknown-commit)
O            0.33518814917679       -0.71433006097521       -1.95500464562446
C           -0.40766542341909       -1.82506634479422       -2.40051613294576
H            0.21806551757308       -2.72778560831022       -2.40751874173483
H           -1.26523265170466       -2.01809774007400       -1.74483557138890
C           -0.98544420335158       -1.55335949832253       -3.79357296229911
H           -1.73743549146617       -0.76658932069321       -3.71868078730075
H           -1.46584571225272       -2.47193147491923       -4.13460150793818
N            0.00655705127357       -1.11819974829712       -4.83735427981699
C            1.27547582094301       -1.87823370778805       -4.74036366109352
H            1.91893744270162       -1.62111963712873       -5.57906309825112
H            1.07622192961841       -2.94780909762655       -4.76592135530252
H            1.78623949008302       -1.62054776327046       -3.81568785389911
C            0.30182773366081        0.31994105588859       -4.67416293895980
H            0.64256712659350        0.50852009856382       -3.65810473952660
H           -0.59264212220806        0.91051350853029       -4.86180239047563
H            1.07500469682947        0.62308681641640       -5.37697574506940
C           -0.59323597016391       -1.32805965126650       -6.17791954985893
H            0.06053181941998       -0.91456894209245       -6.94328358759424
H           -1.55991456862567       -0.83202266427080       -6.23794100218111
H           -0.72880944546968       -2.39081654337103       -6.37044625619924
H            0.46736881078829       -0.76485367619875       -1.00276319253982
21
 energy: -24.420604735024 gnorm: 0.000043020451 xtb: 6.6.1 (unknown-commit)
O            0.33640018935926       -0.71538022955995       -1.95551563006892
C           -0.40799664278063       -1.82525526192511       -2.40062829818325
H            0.21656038923193       -2.72879389934421       -2.40765804202824
H           -1.26567669915178       -2.01702585445770       -1.74469410308946
C           -0.98572478191311       -1.55310186418786       -3.79361577756330
H           -1.73753265961464       -0.76616034654317       -3.71862751554451
H           -1.46640022342055       -2.47150706374891       -4.13474101895586
N            0.00642752760304       -1.11802287524708       -4.83727923710805
C            1.27548869955514       -1.87772904015052       -4.73975211388307
H            1.91914051917443       -1.62066925294580       -5.57832440017226
H            1.07653784633253       -2.94736933596422       -4.76507704925554
H            1.78589353619309       -1.61964786509935       -3.81498024767436
C            0.30130475509636        0.32022306139714       -4.67443994704178
H            0.64181356801679        0.50909710901980       -3.65835058451705
H           -0.59325624561931        0.91057711902893       -4.86240208361374
H            1.07457842145790        0.62340552407019       -5.37716852413673
C           -0.59295466301853       -1.32833829590027       -6.17793296236274
H            0.06110082244255       -0.91528080965849       -6.94329536754255
H           -1.55956844950859       -0.83222331518333       -6.23848384033033
H           -0.72859532618307       -2.39116375011508       -6.37003314258467
H            0.47021941674720       -0.76696375348501       -1.00352011434360
21
 energy: -24.420604780926 gnorm: 0.000025339124 xtb: 6.6.1 (unknown-commit)
O            0.33724329251302       -0.71607703763678       -1.95580718504124
C           -0.40817240554712       -1.82536618186007       -2.40069532658861
H            0.21561431821310       -2.72942804705672       -2.40771323448350
H           -1.26585886157376       -2.01633396100656       -1.74456171858419
C           -0.98592645136524       -1.55295341848616       -3.79365006916930
H           -1.73766658307937       -0.76595262794751       -3.71864985674654
H           -1.46671354097699       -2.47125463852478       -4.13488365497281
N            0.00632678104994       -1.11790715378557       -4.83725987266459
C            1.27550989012662       -1.87739566062358       -4.73937480050757
H            1.91929399244874       -1.62034343511883       -5.57785545171987
H            1.07675237323805       -2.94707109878155       -4.76458329417588
H            1.78565246086592       -1.61907768289132       -3.81451187335891
C            0.30093617390933        0.32042318763550       -4.67454855383450
H            0.64126297060087        0.50954945702259       -3.65843969366797
H           -0.59369915275609        0.91058658235667       -4.86278571050240
H            1.07427119099998        0.62360586708130       -5.37719563382768
C           -0.59279082579427       -1.32855781218258       -6.17798429352948
H            0.06163912817964       -0.91600536479871       -6.94331158693121
H           -1.55919975798569       -0.83208594059281       -6.23896506301122
H           -0.72878358665121       -2.39141083046012       -6.36975775382025
H            0.47206859358452       -0.76827420234239       -1.00398537286229
