      -----------------------------------------------------------      
     |                   =====================                   |     
     |                           x T B                           |     
     |                   =====================                   |     
     |                         S. Grimme                         |     
     |          Mulliken Center for Theoretical Chemistry        |     
     |                    University of Bonn                     |     
      -----------------------------------------------------------      

   * xtb version 6.6.1 (unknown-commit) compiled by '@Linux' on 12/27/2023

   xtb is free software: you can redistribute it and/or modify it under
   the terms of the GNU Lesser General Public License as published by
   the Free Software Foundation, either version 3 of the License, or
   (at your option) any later version.
   
   xtb is distributed in the hope that it will be useful,
   but WITHOUT ANY WARRANTY; without even the implied warranty of
   MERCHANTABILITY or FITNESS FOR A PARTICULAR PURPOSE.  See the
   GNU Lesser General Public License for more details.
   
   Cite this work as:
   * C. Bannwarth, E. Caldeweyher, S. Ehlert, A. Hansen, P. Pracht,
     J. Seibert, S. Spicher, S. Grimme, WIREs Comput. Mol. Sci., 2020, 11,
     e01493. DOI: 10.1002/wcms.1493
   
   for GFN2-xTB:
   * C. Bannwarth, S. Ehlert and S. Grimme., J. Chem. Theory Comput., 2019,
     15, 1652-1671. DOI: 10.1021/acs.jctc.8b01176
   for GFN1-xTB:
   * S. Grimme, C. Bannwarth, P. Shushkov, J. Chem. Theory Comput., 2017,
     13, 1989-2009. DOI: 10.1021/acs.jctc.7b00118
   for GFN0-xTB:
   * P. Pracht, E. Caldeweyher, S. Ehlert, S. Grimme, ChemRxiv, 2019, preprint.
     DOI: 10.26434/chemrxiv.8326202.v1
   for GFN-FF:
   * S. Spicher and S. Grimme, Angew. Chem. Int. Ed., 2020, 59, 15665-15673.
     DOI: 10.1002/anie.202004239
   
   for ALPB and GBSA implicit solvation:
   * S. Ehlert, M. Stahn, S. Spicher, S. Grimme, J. Chem. Theory Comput.,
     2021, 17, 4250-4261. DOI: 10.1021/acs.jctc.1c00471
   
   for DFT-D4:
   * E. Caldeweyher, C. Bannwarth and S. Grimme, J. Chem. Phys., 2017,
     147, 034112. DOI: 10.1063/1.4993215
   * E. Caldeweyher, S. Ehlert, A. Hansen, H. Neugebauer, S. Spicher,
     C. Bannwarth and S. Grimme, J. Chem. Phys., 2019, 150, 154122.
     DOI: 10.1063/1.5090222
   * E. Caldeweyher, J.-M. Mewes, S. Ehlert and S. Grimme, Phys. Chem. Chem. Phys.
     2020, 22, 8499-8512. DOI: 10.1039/D0CP00502A
   
   for sTDA-xTB:
   * S. Grimme and C. Bannwarth, J. Chem. Phys., 2016, 145, 054103.
     DOI: 10.1063/1.4959605
   
   in the mass-spec context:
   * V. Asgeirsson, C. Bauer and S. Grimme, Chem. Sci., 2017, 8, 4879.
     DOI: 10.1039/c7sc00601b
   * J. Koopman and S. Grimme, ACS Omega 2019, 4, 12, 15120-15133.
     DOI: 10.1021/acsomega.9b02011
   
   for metadynamics refer to:
   * S. Grimme, J. Chem. Theory Comput., 2019, 155, 2847-2862
     DOI: 10.1021/acs.jctc.9b00143
   
   for SPH calculations refer to:
   * S. Spicher and S. Grimme, J. Chem. Theory Comput., 2021, 17, 1701-1714
     DOI: 10.1021/acs.jctc.0c01306
   
   with help from (in alphabetical order)
   P. Atkinson, C. Bannwarth, F. Bohle, G. Brandenburg, E. Caldeweyher
   M. Checinski, S. Dohm, S. Ehlert, S. Ehrlich, I. Gerasimov, C. Hölzer
   A. Katbashev, J. Koopman, C. Lavigne, S. Lehtola, F. März, M. Müller,
   F. Musil, H. Neugebauer, J. Pisarek, C. Plett, P. Pracht, F. Pultar,
   J. Seibert, P. Shushkov, S. Spicher, M. Stahn, M. Steiner, T. Strunk,
   J. Stückrath, T. Rose, and J. Unsleber
   
 * started run on 2024/01/10 at 18:28:35.906     

           -------------------------------------------------
          |                Calculation Setup                |
           -------------------------------------------------

          program call               : xtb struc.xyz --gfn2 --hess
          hostname                   : swaroop
          coordinate file            : struc.xyz
          omp threads                :                     1

   ID    Z sym.   atoms
    1    8 O      1, 23, 31, 39, 47
    2    6 C      2, 5, 9, 13, 17, 22, 30, 38, 46
    3    1 H      3, 4, 6, 7, 10-12, 14-16, 18-21, 25, 26, 28, 29, 33, 34,
                  36, 37, 41, 42, 44, 45, 49, 50, 52, 53
    4    7 N      8, 24, 27, 32, 35, 40, 43, 48, 51

molecular fragmentation (1/2 indicates fragments):
11111111111111111111122222222222222222222222222222222
# atoms in fragment 1/2:    21    32
 fragment masses (1/2) :      104.17      240.22
CMA distance (Bohr)    :   6.126
constraining FC (au)   :  0.0500

           -------------------------------------------------
          |                 G F N 2 - x T B                 |
           -------------------------------------------------

        Reference                      10.1021/acs.jctc.8b01176
      * Hamiltonian:
        H0-scaling (s, p, d)           1.850000    2.230000    2.230000
        zeta-weighting                 0.500000
      * Dispersion:
        s8                             2.700000
        a1                             0.520000
        a2                             5.000000
        s9                             5.000000
      * Repulsion:
        kExp                           1.500000    1.000000
        rExp                           1.000000
      * Coulomb:
        alpha                          2.000000
        third order                    shell-resolved
        anisotropic                    true
        a3                             3.000000
        a5                             4.000000
        cn-shift                       1.200000
        cn-exp                         4.000000
        max-rad                        5.000000


          ...................................................
          :                      SETUP                      :
          :.................................................:
          :  # basis functions                 122          :
          :  # atomic orbitals                 122          :
          :  # shells                           76          :
          :  # electrons                       140          :
          :  max. iterations                   250          :
          :  Hamiltonian                  GFN2-xTB          :
          :  restarted?                      false          :
          :  GBSA solvation                  false          :
          :  PC potential                    false          :
          :  electronic temp.          300.0000000     K    :
          :  accuracy                    1.0000000          :
          :  -> integral cutoff          0.2500000E+02      :
          :  -> integral neglect         0.1000000E-07      :
          :  -> SCF convergence          0.1000000E-05 Eh   :
          :  -> wf. convergence          0.1000000E-03 e    :
          :  Broyden damping             0.4000000          :
          ...................................................

 iter      E             dE          RMSdq      gap      omega  full diag
   1    -81.5440727 -0.815441E+02  0.430E+00    5.10       0.0  T
   2    -81.8346641 -0.290591E+00  0.235E+00    5.98       1.0  T
   3    -81.8404305 -0.576637E-02  0.116E+00    5.74       1.0  T
   4    -81.8417432 -0.131268E-02  0.241E-01    5.81       1.0  T
   5    -81.8426647 -0.921507E-03  0.914E-02    5.75       1.0  T
   6    -81.8426893 -0.246112E-04  0.270E-02    5.78       1.0  T
   7    -81.8426939 -0.455502E-05  0.752E-03    5.78       1.8  T
   8    -81.8426941 -0.272968E-06  0.293E-03    5.77       4.7  T
   9    -81.8426942 -0.294182E-07  0.105E-03    5.77      13.1  T
  10    -81.8426942 -0.635941E-08  0.231E-04    5.77      59.5  T
  11    -81.8426942 -0.763066E-09  0.929E-05    5.77     147.9  T

   *** convergence criteria satisfied after 11 iterations ***

         #    Occupation            Energy/Eh            Energy/eV
      -------------------------------------------------------------
         1        2.0000           -0.8072995             -21.9677
       ...           ...                  ...                  ...
        64        2.0000           -0.4979830             -13.5508
        65        2.0000           -0.4973437             -13.5334
        66        2.0000           -0.4967705             -13.5178
        67        2.0000           -0.4935296             -13.4296
        68        2.0000           -0.4918930             -13.3851
        69        2.0000           -0.4909576             -13.3596
        70        2.0000           -0.4871168             -13.2551 (HOMO)
        71                         -0.2749447              -7.4816 (LUMO)
        72                         -0.2682363              -7.2991
        73                         -0.2657631              -7.2318
        74                         -0.2605207              -7.0891
        75                         -0.1644963              -4.4762
       ...                                ...                  ...
       122                          0.5600601              15.2400
      -------------------------------------------------------------
                  HL-Gap            0.2121721 Eh            5.7735 eV
             Fermi-level           -0.3810308 Eh          -10.3684 eV

 SCC (total)                   0 d,  0 h,  0 min,  0.089 sec
 SCC setup                      ...        0 min,  0.000 sec (  0.327%)
 Dispersion                     ...        0 min,  0.001 sec (  0.654%)
 classical contributions        ...        0 min,  0.000 sec (  0.207%)
 integral evaluation            ...        0 min,  0.008 sec (  8.930%)
 iterations                     ...        0 min,  0.052 sec ( 58.519%)
 molecular gradient             ...        0 min,  0.028 sec ( 31.063%)
 printout                       ...        0 min,  0.000 sec (  0.286%)

         :::::::::::::::::::::::::::::::::::::::::::::::::::::
         ::                     SUMMARY                     ::
         :::::::::::::::::::::::::::::::::::::::::::::::::::::
         :: total energy             -80.933856638123 Eh    ::
         :: gradient norm              0.000164554409 Eh/a0 ::
         :: HOMO-LUMO gap              5.773497182847 eV    ::
         ::.................................................::
         :: SCC energy               -81.842694160798 Eh    ::
         :: -> isotropic ES            0.296242730518 Eh    ::
         :: -> anisotropic ES         -0.030278300988 Eh    ::
         :: -> anisotropic XC          0.020759716926 Eh    ::
         :: -> dispersion             -0.045748200614 Eh    ::
         :: repulsion energy           0.907402980610 Eh    ::
         :: add. restraining           0.000000000000 Eh    ::
         :: total charge               1.000000000000 e     ::
         :::::::::::::::::::::::::::::::::::::::::::::::::::::

           ------------------------------------------------- 
          |                Numerical Hessian                |
           ------------------------------------------------- 
step length          :   0.00500
SCC accuracy         :   0.30000
Hessian scale factor :   1.00000
frozen atoms in %    :   0.00000    0
RMS gradient         :   0.00016
estimated CPU  time      0.24 min
estimated wall time      0.24 min

writing file <hessian>.

 projected vibrational frequencies (cm⁻¹)
eigval :       -0.00    -0.00    -0.00     0.00     0.00     0.00
eigval :       13.22    25.26    26.54    39.57    41.00    41.79
eigval :       45.94    50.23    61.22    68.51    74.61    79.06
eigval :       81.24    94.77   101.42   103.10   110.01   122.89
eigval :      128.27   136.68   149.95   161.24   179.43   185.98
eigval :      204.65   208.98   218.62   225.21   253.09   277.46
eigval :      297.87   304.14   318.81   346.69   377.90   385.27
eigval :      392.06   408.46   433.86   461.77   463.35   465.29
eigval :      469.86   476.23   478.39   481.61   488.18   494.35
eigval :      510.74   532.35   541.61   544.32   553.98   560.39
eigval :      567.84   588.08   643.96   667.79   676.22   676.89
eigval :      688.69   720.45   729.19   763.38   766.12   789.78
eigval :      904.80   923.04   955.20   962.92   967.95   993.28
eigval :     1004.53  1006.85  1007.16  1009.08  1019.11  1023.99
eigval :     1031.08  1034.28  1035.35  1084.57  1084.60  1088.85
eigval :     1090.26  1102.85  1127.15  1130.48  1162.21  1218.35
eigval :     1245.11  1277.62  1309.40  1325.81  1327.71  1344.00
eigval :     1355.91  1362.21  1368.94  1372.41  1404.19  1406.89
eigval :     1433.41  1435.40  1439.70  1444.46  1445.25  1445.74
eigval :     1455.08  1457.09  1459.71  1467.94  1472.32  1477.59
eigval :     1479.41  1491.24  1502.35  1503.36  1514.22  1666.40
eigval :     1692.74  1710.64  1717.35  2899.23  2966.12  2981.13
eigval :     2996.35  3020.46  3033.00  3042.60  3044.18  3050.09
eigval :     3054.27  3056.04  3073.82  3076.33  3172.32  3184.03
eigval :     3249.83  3281.32  3318.48  3429.87  3459.54  3491.49
eigval :     3496.96  3500.03  3504.09  3528.25  3539.99  3541.50
eigval :     3561.72  3566.49  3570.32
           -------------------------------------------------
          |                Property Printout                |
           -------------------------------------------------

    * Orbital Energies and Occupations

         #    Occupation            Energy/Eh            Energy/eV
      -------------------------------------------------------------
         1        2.0000           -0.8072996             -21.9677
       ...           ...                  ...                  ...
        58        2.0000           -0.5232033             -14.2371
        59        2.0000           -0.5100544             -13.8793
        60        2.0000           -0.5063585             -13.7787
        61        2.0000           -0.5032339             -13.6937
        62        2.0000           -0.4998673             -13.6021
        63        2.0000           -0.4987176             -13.5708
        64        2.0000           -0.4979837             -13.5508
        65        2.0000           -0.4973442             -13.5334
        66        2.0000           -0.4967708             -13.5178
        67        2.0000           -0.4935303             -13.4296
        68        2.0000           -0.4918935             -13.3851
        69        2.0000           -0.4909581             -13.3596
        70        2.0000           -0.4871174             -13.2551 (HOMO)
        71                         -0.2749446              -7.4816 (LUMO)
        72                         -0.2682365              -7.2991
        73                         -0.2657638              -7.2318
        74                         -0.2605211              -7.0891
        75                         -0.1644964              -4.4762
        76                         -0.1079146              -2.9365
        77                         -0.0987790              -2.6879
        78                         -0.0944618              -2.5704
        79                         -0.0852366              -2.3194
        80                         -0.0822617              -2.2385
        81                         -0.0731221              -1.9898
       ...                                ...                  ...
       122                          0.5600598              15.2400
      -------------------------------------------------------------
                  HL-Gap            0.2121728 Eh            5.7735 eV
             Fermi-level           -0.3810310 Eh          -10.3684 eV

     #   Z          covCN         q      C6AA      α(0)
     1   8 O        1.654    -0.466    22.164     6.355
     2   6 C        3.673     0.072    19.602     6.345
     3   1 H        0.924     0.059     2.207     2.323
     4   1 H        0.923     0.049     2.332     2.388
     5   6 C        3.760    -0.062    21.748     6.648
     6   1 H        0.924     0.115     1.656     2.012
     7   1 H        0.924     0.076     2.026     2.226
     8   7 N        3.623     0.156    18.615     6.408
     9   6 C        3.728    -0.119    22.891     6.831
    10   1 H        0.925     0.106     1.727     2.055
    11   1 H        0.925     0.125     1.572     1.961
    12   1 H        0.925     0.094     1.839     2.120
    13   6 C        3.736    -0.118    22.855     6.822
    14   1 H        0.925     0.113     1.668     2.020
    15   1 H        0.925     0.079     1.992     2.207
    16   1 H        0.924     0.132     1.520     1.928
    17   6 C        3.728    -0.105    22.619     6.790
    18   1 H        0.925     0.085     1.924     2.169
    19   1 H        0.925     0.130     1.538     1.939
    20   1 H        0.925     0.083     1.945     2.181
    21   1 H        0.803     0.316     0.674     1.290
    22   6 C        2.675     0.343    21.165     7.528
    23   8 O        0.860    -0.521    24.258     6.604
    24   7 N        2.645    -0.299    27.713     7.818
    25   1 H        0.860     0.220     1.010     1.575
    26   1 H        0.861     0.182     1.202     1.718
    27   7 N        2.645    -0.285    27.358     7.768
    28   1 H        0.861     0.186     1.183     1.703
    29   1 H        0.860     0.205     1.083     1.630
    30   6 C        2.675     0.340    21.223     7.539
    31   8 O        0.860    -0.528    24.423     6.626
    32   7 N        2.644    -0.304    27.837     7.836
    33   1 H        0.859     0.245     0.904     1.489
    34   1 H        0.861     0.180     1.213     1.725
    35   7 N        2.645    -0.292    27.522     7.792
    36   1 H        0.861     0.185     1.186     1.706
    37   1 H        0.861     0.198     1.117     1.655
    38   6 C        2.675     0.338    21.255     7.544
    39   8 O        0.859    -0.534    24.548     6.643
    40   7 N        2.644    -0.336    28.660     7.951
    41   1 H        0.860     0.190     1.156     1.684
    42   1 H        0.860     0.226     0.982     1.552
    43   7 N        2.645    -0.309    27.950     7.852
    44   1 H        0.860     0.222     0.998     1.565
    45   1 H        0.860     0.236     0.941     1.519
    46   6 C        2.675     0.343    21.171     7.529
    47   8 O        0.860    -0.533    24.518     6.639
    48   7 N        2.645    -0.294    27.580     7.800
    49   1 H        0.860     0.198     1.117     1.656
    50   1 H        0.861     0.181     1.210     1.723
    51   7 N        2.644    -0.312    28.028     7.863
    52   1 H        0.860     0.173     1.253     1.753
    53   1 H        0.860     0.236     0.938     1.518

 Mol. C6AA /au·bohr⁶  :      21788.431331
 Mol. C8AA /au·bohr⁸  :     454390.969045
 Mol. α(0) /au        :        220.522310


Wiberg/Mayer (AO) data.
largest (>0.10) Wiberg bond orders for each atom

 ---------------------------------------------------------------------------
     #   Z sym  total        # sym  WBO       # sym  WBO       # sym  WBO
 ---------------------------------------------------------------------------
     1   8 O    1.958 --     2 C    1.012    21 H    0.833
     2   6 C    3.963 --     1 O    1.012     5 C    0.995     3 H    0.965
                             4 H    0.963
     3   1 H    0.996 --     2 C    0.965
     4   1 H    0.997 --     2 C    0.963
     5   6 C    3.940 --     2 C    0.995     7 H    0.969     6 H    0.948
                             8 N    0.940
     6   1 H    0.987 --     5 C    0.948
     7   1 H    0.994 --     5 C    0.969
     8   7 N    3.821 --    17 C    0.962    13 C    0.951     9 C    0.951
                             5 C    0.940
     9   6 C    3.910 --    12 H    0.975    10 H    0.963    11 H    0.954
                             8 N    0.951
    10   1 H    0.989 --     9 C    0.963
    11   1 H    0.984 --     9 C    0.954
    12   1 H    0.991 --     9 C    0.975
    13   6 C    3.912 --    15 H    0.979    14 H    0.965    16 H    0.954
                             8 N    0.951
    14   1 H    0.987 --    13 C    0.965
    15   1 H    0.994 --    13 C    0.979
    16   1 H    0.982 --    13 C    0.954
    17   6 C    3.929 --    20 H    0.978    18 H    0.975    19 H    0.964
                             8 N    0.962
    18   1 H    0.993 --    17 C    0.975
    19   1 H    0.983 --    17 C    0.964
    20   1 H    0.993 --    17 C    0.978
    21   1 H    0.900 --     1 O    0.833
    22   6 C    3.959 --    23 O    1.516    24 N    1.217    27 N    1.217
    23   8 O    1.907 --    22 C    1.516    24 N    0.141    27 N    0.140
    24   7 N    3.322 --    22 C    1.217    26 H    0.948    25 H    0.919
                            23 O    0.141
    25   1 H    0.952 --    24 N    0.919
    26   1 H    0.967 --    24 N    0.948
    27   7 N    3.332 --    22 C    1.217    28 H    0.947    29 H    0.941
                            23 O    0.140
    28   1 H    0.965 --    27 N    0.947
    29   1 H    0.958 --    27 N    0.941
    30   6 C    3.960 --    31 O    1.479    32 N    1.266    35 N    1.206
    31   8 O    1.912 --    30 C    1.479    32 N    0.143    35 N    0.129
    32   7 N    3.352 --    30 C    1.266    34 H    0.948    33 H    0.865
                            31 O    0.143
    33   1 H    0.940 --    32 N    0.865
    34   1 H    0.967 --    32 N    0.948
    35   7 N    3.320 --    30 C    1.206    36 H    0.947    37 H    0.943
                            31 O    0.129
    36   1 H    0.966 --    35 N    0.947
    37   1 H    0.961 --    35 N    0.943
    38   6 C    3.960 --    39 O    1.495    43 N    1.291    40 N    1.154
    39   8 O    1.909 --    38 C    1.495    43 N    0.158    40 N    0.114
    40   7 N    3.287 --    38 C    1.154    41 H    0.944    42 H    0.899
                            39 O    0.114
    41   1 H    0.964 --    40 N    0.944
    42   1 H    0.949 --    40 N    0.899
    43   7 N    3.382 --    38 C    1.291    44 H    0.911    45 H    0.882
                            39 O    0.158
    44   1 H    0.950 --    43 N    0.911
    45   1 H    0.944 --    43 N    0.882
    46   6 C    3.959 --    47 O    1.519    51 N    1.233    48 N    1.198
    47   8 O    1.887 --    46 C    1.519    51 N    0.146    48 N    0.136
    48   7 N    3.312 --    46 C    1.198    50 H    0.948    49 H    0.944
                            47 O    0.136
    49   1 H    0.961 --    48 N    0.944
    50   1 H    0.967 --    48 N    0.948
    51   7 N    3.325 --    46 C    1.233    52 H    0.950    53 H    0.883
                            47 O    0.146
    52   1 H    0.970 --    51 N    0.950
    53   1 H    0.944 --    51 N    0.883
 ---------------------------------------------------------------------------

Topologies differ in total number of bonds
Writing topology from bond orders to xtbtopo.mol

molecular dipole:
                 x           y           z       tot (Debye)
 q only:       -1.102      -0.980       0.433
   full:       -0.946      -0.641       0.011       2.906
molecular quadrupole (traceless):
                xx          xy          yy          xz          yz          zz
 q only:        2.608     -25.157       5.165      -5.286       1.760      -7.773
  q+dip:        5.840     -29.336       5.818      -2.692       2.196     -11.658
   full:        5.559     -29.375       5.843      -3.363       2.292     -11.402

           -------------------------------------------------
          |               Frequency Printout                |
           -------------------------------------------------
 projected vibrational frequencies (cm⁻¹)
eigval :       -0.00    -0.00    -0.00     0.00     0.00     0.00
eigval :       13.22    25.26    26.54    39.57    41.00    41.79
eigval :       45.94    50.23    61.22    68.51    74.61    79.06
eigval :       81.24    94.77   101.42   103.10   110.01   122.89
eigval :      128.27   136.68   149.95   161.24   179.43   185.98
eigval :      204.65   208.98   218.62   225.21   253.09   277.46
eigval :      297.87   304.14   318.81   346.69   377.90   385.27
eigval :      392.06   408.46   433.86   461.77   463.35   465.29
eigval :      469.86   476.23   478.39   481.61   488.18   494.35
eigval :      510.74   532.35   541.61   544.32   553.98   560.39
eigval :      567.84   588.08   643.96   667.79   676.22   676.89
eigval :      688.69   720.45   729.19   763.38   766.12   789.78
eigval :      904.80   923.04   955.20   962.92   967.95   993.28
eigval :     1004.53  1006.85  1007.16  1009.08  1019.11  1023.99
eigval :     1031.08  1034.28  1035.35  1084.57  1084.60  1088.85
eigval :     1090.26  1102.85  1127.15  1130.48  1162.21  1218.35
eigval :     1245.11  1277.62  1309.40  1325.81  1327.71  1344.00
eigval :     1355.91  1362.21  1368.94  1372.41  1404.19  1406.89
eigval :     1433.41  1435.40  1439.70  1444.46  1445.25  1445.74
eigval :     1455.08  1457.09  1459.71  1467.94  1472.32  1477.59
eigval :     1479.41  1491.24  1502.35  1503.36  1514.22  1666.40
eigval :     1692.74  1710.64  1717.35  2899.23  2966.12  2981.13
eigval :     2996.35  3020.46  3033.00  3042.60  3044.18  3050.09
eigval :     3054.27  3056.04  3073.82  3076.33  3172.32  3184.03
eigval :     3249.83  3281.32  3318.48  3429.87  3459.54  3491.49
eigval :     3496.96  3500.03  3504.09  3528.25  3539.99  3541.50
eigval :     3561.72  3566.49  3570.32
 reduced masses (amu)
   1: 12.49   2: 12.48   3: 12.63   4: 12.92   5: 12.23   6: 12.54   7: 12.55   8: 12.06
   9: 12.14  10: 11.88  11: 12.54  12: 12.41  13: 12.43  14: 12.73  15: 12.28  16: 12.84
  17: 11.67  18: 12.68  19: 12.59  20: 13.38  21: 12.48  22: 13.05  23: 12.62  24: 12.34
  25: 12.62  26: 12.55  27: 12.85  28: 12.41  29: 13.34  30: 10.08  31: 11.59  32: 12.23
  33:  4.09  34:  2.93  35:  2.46  36:  8.17  37:  2.50  38:  5.90  39:  3.56  40:  3.91
  41:  3.36  42:  7.15  43:  3.04  44:  3.27  45:  8.78  46:  6.68  47:  5.69  48:  5.37
  49:  5.09  50:  7.71  51:  5.53  52:  3.07  53:  7.91  54:  5.35  55:  8.53  56: 10.02
  57:  7.39  58: 11.25  59:  7.73  60: 11.26  61:  3.86  62:  6.66  63:  2.92  64: 10.17
  65: 11.73  66: 11.70  67:  9.48  68:  2.94  69:  1.65  70:  9.32  71:  1.96  72:  4.30
  73:  7.54  74:  7.67  75:  5.15  76:  4.89  77:  4.89  78:  7.63  79:  8.76  80:  8.62
  81:  8.82  82:  8.36  83:  9.27  84:  5.71  85:  7.07  86:  3.53  87:  5.71  88:  9.12
  89:  8.99  90:  7.51  91:  8.67  92:  3.97  93:  7.75  94:  6.88  95:  2.77  96:  5.43
  97:  7.35  98:  8.12  99:  6.25 100:  3.19 101:  4.89 102:  4.17 103:  4.15 104:  5.81
 105:  4.74 106:  4.74 107:  2.53 108:  2.52 109:  2.38 110:  1.67 111:  2.16 112:  2.97
 113:  2.37 114:  2.49 115:  1.92 116:  3.29 117:  2.74 118:  1.77 119:  1.96 120:  1.73
 121:  1.71 122:  8.52 123:  8.33 124:  8.11 125:  9.52 126: 12.39 127: 12.71 128: 12.75
 129: 12.73 130:  1.77 131:  1.76 132:  1.73 133:  1.70 134:  1.74 135:  1.78 136:  1.54
 137:  1.88 138:  1.68 139:  1.83 140:  1.72 141:  1.63 142:  1.80 143:  1.91 144:  1.81
 145:  1.76 146:  1.70 147:  1.74 148:  1.97 149:  1.54 150:  1.93 151:  1.45 152:  1.45
 153:  1.45 154:  1.91 155:  1.90 156:  2.10 157:  2.18 158:  2.19 159:  2.18
 IR intensities (km·mol⁻¹)
   1:  1.81   2:  1.33   3:  0.93   4:  1.37   5:  1.38   6:  2.02   7:  0.18   8:  2.12
   9:  1.61  10:  1.40  11:  1.52  12:  0.79  13:  1.70  14:  5.81  15:  2.51  16:  1.45
  17:  4.47  18:  0.74  19:  6.50  20:  4.44  21: 10.32  22:  0.67  23:  8.14  24:  3.95
  25: 20.55  26: 15.80  27: 15.37  28:  7.95  29: 20.94  30:  3.29  31: 79.04  32: 14.02
  33:111.39  34:133.75  35:  3.22  36:  3.42  37:130.29  38:  0.71  39:  5.02  40:  0.77
  41:282.38  42:  7.08  43:173.30  44:322.02  45:  3.30  46:  9.16  47:  1.16  48:  6.70
  49: 22.47  50:  5.31  51:  6.43  52:  3.43  53: 25.25  54: 75.41  55: 36.91  56: 31.16
  57: 10.01  58: 39.76  59: 44.80  60: 38.69  61: 10.01  62:143.91  63:267.34  64: 30.48
  65: 77.70  66: 47.64  67: 37.48  68:118.15  69: 93.15  70:  4.63  71:131.94  72:598.08
  73:  2.81  74: 10.78  75:  5.26  76:  5.98  77:  1.31  78: 20.82  79:  2.78  80: 25.27
  81: 12.61  82: 14.43  83:  1.19  84: 22.96  85:  3.72  86:  1.47  87: 24.86  88:  0.80
  89:  1.84  90: 15.34  91:  1.82  92: 24.16  93: 44.82  94: 14.44  95: 19.38  96:  2.64
  97:  6.19  98: 12.57  99:  3.76 100: 32.62 101:143.61 102:182.87 103: 13.92 104: 88.14
 105: 39.03 106: 50.51 107: 30.81 108: 23.41 109:  4.83 110:  3.76 111:  3.83 112:  8.17
 113: 16.79 114: 25.89 115:  6.74 116:  9.11 117: 13.09 118:  9.28 119: 26.22 120:  5.11
 121: 25.84 122:616.40 123:312.81 124:671.68 125:394.33 126:199.38 127:****** 128:703.45
 129:282.88 130: 31.02 131: 46.62 132:  7.69 133: 17.17 134: 16.59 135: 15.92 136: 45.97
 137: 27.62 138: 16.04 139:  9.96 140:  1.23 141:  4.65 142:  9.69 143:635.38 144:453.52
 145:****** 146:666.13 147:163.61 148:340.49 149:224.39 150: 32.78 151: 18.51 152: 17.03
 153: 17.41 154: 10.84 155: 17.55 156: 38.18 157: 10.62 158: 16.08 159: 15.17
 Raman intensities (amu)
Molecule has no symmetry elements
It seems to be the C1 point group
   1:  0.00   2:  0.00   3:  0.00   4:  0.00   5:  0.00   6:  0.00   7:  0.00   8:  0.00
   9:  0.00  10:  0.00  11:  0.00  12:  0.00  13:  0.00  14:  0.00  15:  0.00  16:  0.00
  17:  0.00  18:  0.00  19:  0.00  20:  0.00  21:  0.00  22:  0.00  23:  0.00  24:  0.00
  25:  0.00  26:  0.00  27:  0.00  28:  0.00  29:  0.00  30:  0.00  31:  0.00  32:  0.00
  33:  0.00  34:  0.00  35:  0.00  36:  0.00  37:  0.00  38:  0.00  39:  0.00  40:  0.00
  41:  0.00  42:  0.00  43:  0.00  44:  0.00  45:  0.00  46:  0.00  47:  0.00  48:  0.00
  49:  0.00  50:  0.00  51:  0.00  52:  0.00  53:  0.00  54:  0.00  55:  0.00  56:  0.00
  57:  0.00  58:  0.00  59:  0.00  60:  0.00  61:  0.00  62:  0.00  63:  0.00  64:  0.00
  65:  0.00  66:  0.00  67:  0.00  68:  0.00  69:  0.00  70:  0.00  71:  0.00  72:  0.00
  73:  0.00  74:  0.00  75:  0.00  76:  0.00  77:  0.00  78:  0.00  79:  0.00  80:  0.00
  81:  0.00  82:  0.00  83:  0.00  84:  0.00  85:  0.00  86:  0.00  87:  0.00  88:  0.00
  89:  0.00  90:  0.00  91:  0.00  92:  0.00  93:  0.00  94:  0.00  95:  0.00  96:  0.00
  97:  0.00  98:  0.00  99:  0.00 100:  0.00 101:  0.00 102:  0.00 103:  0.00 104:  0.00
 105:  0.00 106:  0.00 107:  0.00 108:  0.00 109:  0.00 110:  0.00 111:  0.00 112:  0.00
 113:  0.00 114:  0.00 115:  0.00 116:  0.00 117:  0.00 118:  0.00 119:  0.00 120:  0.00
 121:  0.00 122:  0.00 123:  0.00 124:  0.00 125:  0.00 126:  0.00 127:  0.00 128:  0.00
 129:  0.00 130:  0.00 131:  0.00 132:  0.00 133:  0.00 134:  0.00 135:  0.00 136:  0.00
 137:  0.00 138:  0.00 139:  0.00 140:  0.00 141:  0.00 142:  0.00 143:  0.00 144:  0.00
 145:  0.00 146:  0.00 147:  0.00 148:  0.00 149:  0.00 150:  0.00 151:  0.00 152:  0.00
 153:  0.00 154:  0.00 155:  0.00 156:  0.00 157:  0.00 158:  0.00 159:  0.00
 output can be read by thermo (or use thermo option).
 writing <g98.out> molden fake output.
 recommended (thermochemical) frequency scaling factor: 1.0
           -------------------------------------------------
          |             Thermodynamic Functions             |
           -------------------------------------------------

c1  symmetry found (for desy threshold:  0.10E+00) used in thermo

          ...................................................
          :                      SETUP                      :
          :.................................................:
          :  # frequencies                         153      :
          :  # imaginary freq.                       0      :
          :  linear?                             false      :
          :  only rotor calc.                    false      :
          :  symmetry                               c1      :
          :  rotational number                       1      :
          :  scaling factor                  1.0000000      :
          :  rotor cutoff                   50.0000000 cm⁻¹ :
          :  imag. cutoff                  -20.0000000 cm⁻¹ :
          :.................................................:

    mode    ω/cm⁻¹     T·S(HO)/kcal·mol⁻¹    T·S(FR)/kcal·mol⁻¹   T·S(vib)
   ------------------------------------------------------------------------
       1     13.22    -2.22294 (  0.49%)    -1.45042 ( 99.51%)    -1.45418
       2     25.26    -1.83979 (  6.12%)    -1.25877 ( 93.88%)    -1.29430
       3     26.54    -1.81052 (  7.36%)    -1.24411 ( 92.64%)    -1.28577
       4     39.57    -1.57431 ( 28.18%)    -1.12578 ( 71.82%)    -1.25220
       5     41.00    -1.55337 ( 31.14%)    -1.11528 ( 68.86%)    -1.25171
       6     41.79    -1.54217 ( 32.79%)    -1.10966 ( 67.21%)    -1.25149
       7     45.94    -1.48622 ( 41.62%)    -1.08159 ( 58.38%)    -1.24998
       8     50.23    -1.43364 ( 50.45%)    -1.05518 ( 49.55%)    -1.24612
       9     61.22    -1.31711 ( 69.20%)    -0.99657 ( 30.80%)    -1.21838
      10     68.51    -1.25099 ( 77.90%)    -0.96324 ( 22.10%)    -1.18738
      11     74.61    -1.20094 ( 83.21%)    -0.93797 ( 16.79%)    -1.15680
      12     79.06    -1.16701 ( 86.21%)    -0.92081 ( 13.79%)    -1.13305
      13     81.24    -1.15105 ( 87.45%)    -0.91273 ( 12.55%)    -1.12115
      14     94.77    -1.06113 ( 92.81%)    -0.86710 (  7.19%)    -1.04718
      15    101.42    -1.02169 ( 94.42%)    -0.84701 (  5.58%)    -1.01195
      16    103.10    -1.01216 ( 94.76%)    -0.84214 (  5.24%)    -1.00325
      17    110.01    -0.97457 ( 95.91%)    -0.82293 (  4.09%)    -0.96836
      18    122.89    -0.91068 ( 97.33%)    -0.79014 (  2.67%)    -0.90746
      19    128.27    -0.88603 ( 97.74%)    -0.77744 (  2.26%)    -0.88358
      20    136.68    -0.84968 ( 98.24%)    -0.75864 (  1.76%)    -0.84808
      21    149.95    -0.79691 ( 98.78%)    -0.73118 (  1.22%)    -0.79611
      22    161.24    -0.75585 ( 99.08%)    -0.70967 (  0.92%)    -0.75543
      23    179.43    -0.69599 ( 99.40%)    -0.67802 (  0.60%)    -0.69588
      24    185.98    -0.67605 ( 99.48%)    -0.66739 (  0.52%)    -0.67601
      25    204.65    -0.62340 ( 99.64%)    -0.63905 (  0.36%)    -0.62345
      26    208.98    -0.61197 ( 99.67%)    -0.63285 (  0.33%)    -0.61203
      27    218.62    -0.58750 ( 99.73%)    -0.61949 (  0.27%)    -0.58758
      28    225.21    -0.57148 ( 99.76%)    -0.61069 (  0.24%)    -0.57158
      29    253.09    -0.50952 ( 99.85%)    -0.57612 (  0.15%)    -0.50962
      30    277.46    -0.46192 ( 99.89%)    -0.54889 (  0.11%)    -0.46201
      31    297.87    -0.42600 ( 99.92%)    -0.52786 (  0.08%)    -0.42608
   ------------------------------------------------------------------------

   temp. (K)  partition function   enthalpy   heat capacity  entropy
                                   cal/mol     cal/K/mol   cal/K/mol   J/K/mol
 298.15  VIB  0.519E+16            19024.846    104.535    124.002
         ROT  0.130E+08              888.752      2.981     35.530
         INT  0.674E+23            19913.599    107.516    159.532
         TR   0.618E+28             1481.254      4.968     43.384
         TOT                       21394.8527   112.4840   202.9169   849.0042

       T/K    H(0)-H(T)+PV         H(T)/Eh          T*S/Eh         G(T)/Eh
   ------------------------------------------------------------------------
    298.15    0.340949E-01    0.473884E+00    0.964124E-01    0.377472E+00
   ------------------------------------------------------------------------

         :::::::::::::::::::::::::::::::::::::::::::::::::::::
         ::                  THERMODYNAMIC                  ::
         :::::::::::::::::::::::::::::::::::::::::::::::::::::
         :: total free energy         -80.556384766029 Eh   ::
         ::.................................................::
         :: total energy              -80.933856638158 Eh   ::
         :: zero point energy           0.439789354437 Eh   ::
         :: G(RRHO) w/o ZPVE           -0.062317482308 Eh   ::
         :: G(RRHO) contrib.            0.377471872129 Eh   ::
         :::::::::::::::::::::::::::::::::::::::::::::::::::::

           -------------------------------------------------
          | TOTAL ENERGY              -80.933856638158 Eh   |
          | TOTAL ENTHALPY            -80.459972415666 Eh   |
          | TOTAL FREE ENERGY         -80.556384766029 Eh   |
          | GRADIENT NORM               0.000164390074 Eh/α |
          | HOMO-LUMO GAP               5.773516219009 eV   |
           -------------------------------------------------

------------------------------------------------------------------------
 * finished run on 2024/01/10 at 18:28:50.493     
------------------------------------------------------------------------
 total:
 * wall-time:     0 d,  0 h,  0 min, 14.587 sec
 *  cpu-time:     0 d,  0 h,  0 min, 14.507 sec
 * ratio c/w:     0.995 speedup
 SCF:
 * wall-time:     0 d,  0 h,  0 min,  0.090 sec
 *  cpu-time:     0 d,  0 h,  0 min,  0.060 sec
 * ratio c/w:     0.664 speedup
 analytical hessian:
 * wall-time:     0 d,  0 h,  0 min, 14.470 sec
 *  cpu-time:     0 d,  0 h,  0 min, 14.421 sec
 * ratio c/w:     0.997 speedup

