 Entering Gaussian System
 *********************************************
 Gaussian 98:
 frequency output generated by the xtb code
 *********************************************
                         Standard orientation:
 --------------------------------------------------------------------
  Center     Atomic     Atomic              Coordinates (Angstroms)
  Number     Number      Type              X           Y           Z
 --------------------------------------------------------------------
    1          8             0        0.879211   -0.116048    3.039291
    2          6             0       -0.328051    0.104759    2.365019
    3          1             0       -1.128144   -0.182457    3.050112
    4          1             0       -0.455124    1.171032    2.137400
    5          6             0       -0.432572   -0.630927    1.024496
    6          1             0        0.452395   -0.392562    0.429999
    7          1             0       -1.323002   -0.275645    0.503988
    8          7             0       -0.533205   -2.114707    1.093611
    9          6             0        0.720125   -2.684919    1.609549
   10          1             0        1.525745   -2.442422    0.919099
   11          1             0        0.632031   -3.766096    1.696830
   12          1             0        0.949233   -2.252401    2.582102
   13          6             0       -0.764140   -2.600056   -0.278125
   14          1             0        0.064316   -2.289286   -0.911511
   15          1             0       -1.696005   -2.176880   -0.649033
   16          1             0       -0.832159   -3.686106   -0.280870
   17          6             0       -1.669994   -2.529267    1.928781
   18          1             0       -1.490172   -2.278369    2.970664
   19          1             0       -1.809287   -3.605900    1.850895
   20          1             0       -2.566807   -2.024714    1.569020
   21          1             0        1.581485    0.312910    2.515809
   22          6             0        3.215562   -1.270717   -1.131732
   23          8             0        1.986007   -1.358115   -1.161284
   24          7             0        3.852199   -0.490501   -0.245672
   25          1             0        3.302580    0.147490    0.327026
   26          1             0        4.847574   -0.367041   -0.279308
   27          7             0        3.988901   -1.978614   -1.991835
   28          1             0        4.989387   -1.994441   -1.916395
   29          1             0        3.549284   -2.648282   -2.597277
   30          6             0        2.077196    2.518239    0.946000
   31          8             0        2.286036    1.325621    1.180557
   32          7             0        2.896373    3.477069    1.443922
   33          1             0        3.601420    3.202698    2.105151
   34          1             0        2.680676    4.454141    1.365350
   35          7             0        1.051364    2.935442    0.188516
   36          1             0        0.933916    3.908069   -0.029525
   37          1             0        0.439425    2.268406   -0.276624
   38          6             0       -0.773822    0.953288   -2.406256
   39          8             0       -0.853878    1.433097   -1.272796
   40          7             0       -1.689734    1.256068   -3.356883
   41          1             0       -2.461424    1.851593   -3.116990
   42          1             0       -1.665133    0.851268   -4.274252
   43          7             0        0.224466    0.136726   -2.779448
   44          1             0        0.230769   -0.277128   -3.693859
   45          1             0        0.874877   -0.236822   -2.094029
   46          6             0       -4.048725    0.289275   -0.036867
   47          8             0       -3.351886   -0.717733    0.004830
   48          7             0       -5.344538    0.277605    0.373915
   49          1             0       -5.768104   -0.613708    0.563481
   50          1             0       -5.957765    1.052136    0.194521
   51          7             0       -3.577990    1.475759   -0.482403
   52          1             0       -4.105442    2.318272   -0.340380
   53          1             0       -2.579106    1.556981   -0.666930
 --------------------------------------------------------------------
     1 basis functions        1 primitive gaussians
     1 alpha electrons        1 beta electrons

 Harmonic frequencies (cm**-1), IR intensities (km*mol⁻¹),
 Raman scattering activities (A**4/amu), Raman depolarization ratios,
 reduced masses (AMU), force constants (mDyne/A) and normal coordinates:
                      1                      2                      3
                        a                      a                      a 
 Frequencies --    17.2699                20.4525                26.6709
 Red. masses --    12.3325                12.1471                12.3249
 Frc consts  --     0.0000                 0.0000                 0.0000
 IR Inten    --     0.7268                 0.5891                 5.1184
 Raman Activ --     0.0000                 0.0000                 0.0000
 Depolar     --     0.0000                 0.0000                 0.0000
 Atom AN      X      Y      Z        X      Y      Z        X      Y      Z
   1   8    -0.19   0.17   0.03    -0.20   0.00   0.10     0.13  -0.09  -0.16
   2   6    -0.11   0.10  -0.07    -0.11   0.02  -0.01     0.08  -0.08  -0.07
   3   1    -0.05   0.04  -0.03    -0.05   0.00  -0.02     0.03  -0.03  -0.01
   4   1    -0.03   0.03  -0.04    -0.02   0.01  -0.00     0.02  -0.02  -0.01
   5   6    -0.02   0.02  -0.03    -0.00   0.03  -0.03     0.03  -0.05  -0.08
   6   1     0.00   0.00  -0.00     0.01   0.02   0.01     0.01  -0.02  -0.02
   7   1    -0.00  -0.01  -0.03     0.01   0.01  -0.02     0.01  -0.00  -0.02
   8   7     0.03   0.02   0.05     0.02   0.03  -0.06    -0.03  -0.05  -0.12
   9   6     0.03   0.09   0.12     0.01   0.04  -0.01    -0.07  -0.10  -0.07
  10   1     0.01   0.02   0.04     0.01   0.02   0.01    -0.01  -0.04  -0.01
  11   1     0.02   0.03   0.05     0.01   0.01  -0.01    -0.03  -0.03  -0.02
  12   1    -0.01   0.04   0.03    -0.01   0.01   0.00    -0.02  -0.03  -0.02
  13   6     0.09  -0.07   0.07     0.08   0.04  -0.07     0.00  -0.02  -0.13
  14   1     0.02  -0.02   0.02     0.03   0.02  -0.01     0.01  -0.01  -0.03
  15   1     0.02  -0.04   0.01     0.02   0.01  -0.03     0.01   0.01  -0.05
  16   1     0.04  -0.02   0.04     0.03   0.01  -0.03    -0.01  -0.00  -0.04
  17   6     0.02   0.03   0.04    -0.01  -0.00  -0.10    -0.08  -0.02  -0.16
  18   1    -0.01   0.03   0.01    -0.01  -0.00  -0.03    -0.03  -0.01  -0.04
  19   1     0.02   0.01   0.03     0.00  -0.00  -0.04    -0.03  -0.00  -0.05
  20   1     0.00  -0.01  -0.01    -0.00  -0.00  -0.04    -0.01   0.00  -0.06
  21   1    -0.04   0.03   0.01    -0.04  -0.00   0.04     0.02  -0.00  -0.04
  22   6    -0.03  -0.02   0.01     0.06   0.12   0.02     0.06  -0.04   0.10
  23   8    -0.04   0.07  -0.02     0.08   0.12  -0.02     0.06  -0.02   0.07
  24   7     0.00  -0.18   0.13     0.04  -0.09   0.24     0.04   0.12  -0.02
  25   1     0.01  -0.04   0.04     0.00  -0.04   0.07     0.01   0.04  -0.02
  26   1     0.00  -0.06   0.03     0.01  -0.00   0.06     0.01   0.01   0.01
  27   7    -0.07   0.03  -0.06     0.10   0.34  -0.13     0.08  -0.25   0.30
  28   1    -0.02  -0.02  -0.01     0.03   0.08  -0.02     0.02  -0.05   0.08
  29   1    -0.03   0.03  -0.04     0.03   0.12  -0.07     0.03  -0.08   0.09
  30   6     0.16  -0.06  -0.07     0.04  -0.09   0.01     0.03   0.13  -0.05
  31   8     0.04  -0.07   0.01    -0.04  -0.09   0.15     0.03   0.15  -0.08
  32   7     0.34  -0.12  -0.23     0.05  -0.10   0.01     0.11   0.13  -0.14
  33   1     0.09  -0.04  -0.06    -0.01  -0.02   0.03     0.04   0.03  -0.05
  34   1     0.12  -0.03  -0.07     0.03  -0.02  -0.03     0.03   0.03  -0.03
  35   7     0.16   0.01  -0.03     0.16  -0.11  -0.14    -0.03   0.17   0.05
  36   1     0.07   0.00  -0.03     0.06  -0.03  -0.06    -0.00   0.04   0.01
  37   1     0.01   0.01   0.02     0.04  -0.03  -0.03    -0.01   0.05   0.02
  38   6    -0.05   0.15   0.11    -0.12  -0.16  -0.00    -0.10  -0.03   0.18
  39   8    -0.06   0.14   0.14     0.02  -0.04  -0.05    -0.05   0.11   0.16
  40   7    -0.05   0.21   0.12    -0.29  -0.34   0.10    -0.21  -0.20   0.24
  41   1    -0.02   0.05   0.04    -0.08  -0.11   0.04    -0.07  -0.07   0.07
  42   1    -0.02   0.06   0.03    -0.11  -0.13   0.04    -0.08  -0.09   0.08
  43   7    -0.06   0.18   0.08    -0.14  -0.17  -0.05    -0.09  -0.01   0.20
  44   1    -0.02   0.05   0.02    -0.07  -0.07  -0.00    -0.04  -0.03   0.07
  45   1    -0.02   0.04   0.02    -0.00  -0.01  -0.03    -0.00   0.03   0.05
  46   6    -0.04  -0.16  -0.09     0.06   0.10   0.01     0.00   0.05  -0.05
  47   8     0.03  -0.14  -0.16     0.04   0.09  -0.13     0.04   0.07  -0.22
  48   7    -0.07  -0.30  -0.19     0.09   0.12   0.09     0.00  -0.05  -0.07
  49   1    -0.00  -0.09  -0.08     0.02   0.03   0.01     0.01  -0.02  -0.06
  50   1    -0.03  -0.09  -0.04     0.03   0.04   0.05    -0.00  -0.01   0.01
  51   7    -0.09  -0.10   0.05     0.08   0.13   0.07    -0.03   0.13   0.11
  52   1    -0.04  -0.04   0.03     0.03   0.04   0.05    -0.01   0.03   0.07
  53   1    -0.02  -0.00   0.03     0.02   0.03   0.01    -0.01   0.05   0.04
                      4                      5                      6
                        a                      a                      a 
 Frequencies --    27.8126                31.3492                39.2743
 Red. masses --    11.9736                11.8241                12.4292
 Frc consts  --     0.0000                 0.0000                 0.0000
 IR Inten    --     2.2370                 2.2138                 2.3789
 Raman Activ --     0.0000                 0.0000                 0.0000
 Depolar     --     0.0000                 0.0000                 0.0000
 Atom AN      X      Y      Z        X      Y      Z        X      Y      Z
   1   8    -0.05   0.11  -0.03    -0.27   0.13  -0.12    -0.01   0.13   0.02
   2   6     0.00   0.08  -0.11    -0.16   0.04  -0.25     0.01   0.11  -0.02
   3   1    -0.01   0.05  -0.04    -0.07   0.03  -0.09    -0.00   0.03  -0.01
   4   1     0.01   0.02  -0.06    -0.04   0.00  -0.11     0.00   0.03  -0.01
   5   6     0.04  -0.03  -0.05    -0.02  -0.09  -0.19     0.05   0.11  -0.02
   6   1     0.02  -0.03  -0.01     0.01  -0.04  -0.04     0.01   0.04  -0.00
   7   1     0.02  -0.02  -0.03     0.00  -0.05  -0.09     0.01   0.02  -0.01
   8   7     0.00  -0.03   0.08     0.01  -0.09  -0.06     0.10   0.11  -0.02
   9   6    -0.02  -0.01   0.14     0.01  -0.01   0.04     0.11   0.14  -0.03
  10   1    -0.00  -0.02   0.04     0.01  -0.02   0.02     0.03   0.04  -0.01
  11   1    -0.01   0.00   0.07     0.01  -0.00   0.04     0.04   0.04  -0.01
  12   1    -0.01   0.02   0.03    -0.01   0.03   0.00     0.03   0.04  -0.01
  13   6     0.01  -0.14   0.12     0.08  -0.21  -0.03     0.09   0.10  -0.01
  14   1     0.01  -0.06   0.03     0.02  -0.06  -0.01     0.02   0.04  -0.01
  15   1     0.01  -0.04   0.02     0.02  -0.08  -0.03     0.02   0.02   0.00
  16   1    -0.00  -0.04   0.06     0.04  -0.06   0.02     0.04   0.03  -0.00
  17   6    -0.02   0.07   0.10    -0.01  -0.04  -0.07     0.11   0.07  -0.00
  18   1    -0.01   0.05   0.02    -0.01   0.01  -0.02     0.04   0.02  -0.00
  19   1    -0.01   0.02   0.05     0.00  -0.01   0.00     0.04   0.02   0.00
  20   1    -0.00   0.02   0.01    -0.00  -0.02  -0.04     0.03   0.01   0.00
  21   1     0.00   0.01  -0.01    -0.05   0.03  -0.01     0.00   0.02   0.00
  22   6    -0.06   0.01  -0.13    -0.03  -0.04   0.06    -0.01  -0.14  -0.05
  23   8    -0.06  -0.14   0.05    -0.03  -0.04  -0.03    -0.02   0.04  -0.23
  24   7    -0.02   0.19  -0.33    -0.09  -0.01   0.07    -0.02  -0.17  -0.02
  25   1    -0.00   0.03  -0.06    -0.03   0.00   0.00    -0.00  -0.02  -0.03
  26   1    -0.01   0.07  -0.12    -0.02  -0.01   0.04     0.00  -0.09   0.03
  27   7    -0.11   0.03  -0.20     0.03  -0.11   0.16     0.01  -0.36   0.14
  28   1    -0.03   0.04  -0.09     0.01  -0.02   0.06    -0.00  -0.11   0.06
  29   1    -0.03  -0.02  -0.02     0.02  -0.03   0.04    -0.00  -0.07   0.02
  30   6     0.04   0.02   0.13    -0.03   0.07  -0.01    -0.04  -0.05   0.06
  31   8     0.11   0.02   0.04    -0.06   0.08   0.01     0.00  -0.09  -0.07
  32   7    -0.10   0.03   0.35    -0.07   0.07   0.04    -0.23  -0.08   0.40
  33   1    -0.03   0.00   0.10    -0.03   0.02   0.02    -0.07  -0.03   0.11
  34   1    -0.03   0.01   0.11    -0.01   0.02   0.00    -0.06  -0.02   0.11
  35   7     0.11   0.03   0.05     0.02   0.07  -0.08     0.09  -0.02  -0.09
  36   1     0.01   0.01   0.05     0.01   0.02  -0.02    -0.00   0.00   0.03
  37   1     0.04   0.01  -0.00     0.01   0.02  -0.02     0.03   0.00  -0.04
  38   6    -0.04  -0.06   0.06     0.04   0.06  -0.07    -0.06   0.06  -0.03
  39   8     0.11   0.05   0.03     0.04   0.04  -0.07    -0.05   0.10  -0.04
  40   7    -0.03   0.03   0.08     0.12   0.19  -0.11    -0.25  -0.20   0.07
  41   1     0.01   0.03   0.03     0.04   0.07  -0.03    -0.07  -0.06   0.02
  42   1    -0.05  -0.03   0.04     0.02   0.05  -0.03    -0.04  -0.02   0.00
  43   7    -0.22  -0.28   0.09    -0.04  -0.04  -0.05     0.08   0.27  -0.11
  44   1    -0.08  -0.08   0.03    -0.00   0.00  -0.02    -0.01   0.04  -0.02
  45   1    -0.05  -0.07   0.02    -0.02  -0.02  -0.01     0.03   0.07  -0.03
  46   6     0.08   0.00  -0.12     0.10  -0.02   0.16     0.01  -0.03  -0.00
  47   8     0.10   0.01  -0.18     0.04  -0.09  -0.11     0.06   0.00   0.01
  48   7     0.05  -0.06  -0.24     0.19   0.03   0.42     0.00  -0.09  -0.01
  49   1     0.01  -0.02  -0.10     0.04   0.01   0.09     0.01  -0.03  -0.00
  50   1     0.02  -0.01  -0.06     0.06   0.03   0.16    -0.01  -0.03  -0.00
  51   7     0.11   0.06   0.03     0.13   0.01   0.26    -0.04  -0.01  -0.00
  52   1     0.02   0.01   0.02     0.05   0.01   0.12    -0.02  -0.01  -0.00
  53   1     0.03   0.02   0.02     0.03  -0.01   0.02    -0.01   0.01  -0.00
                      7                      8                      9
                        a                      a                      a 
 Frequencies --    44.5461                51.9053                56.1180
 Red. masses --    12.6423                12.8162                12.7213
 Frc consts  --     0.0000                 0.0000                 0.0000
 IR Inten    --     2.1522                 2.3052                 0.6831
 Raman Activ --     0.0000                 0.0000                 0.0000
 Depolar     --     0.0000                 0.0000                 0.0000
 Atom AN      X      Y      Z        X      Y      Z        X      Y      Z
   1   8     0.25  -0.16  -0.03     0.07   0.06   0.04    -0.05  -0.03   0.09
   2   6     0.18  -0.09   0.04     0.06   0.04   0.04    -0.05  -0.03   0.09
   3   1     0.06  -0.02   0.02     0.02   0.00   0.01    -0.01  -0.03   0.02
   4   1     0.06  -0.02   0.02     0.01   0.01   0.02    -0.03  -0.01   0.04
   5   6     0.08  -0.06   0.03     0.08   0.07   0.03    -0.03   0.04   0.05
   6   1     0.02  -0.03  -0.00     0.02   0.02   0.01    -0.01   0.04   0.02
   7   1     0.02  -0.00   0.02     0.02   0.02   0.01    -0.02   0.01   0.03
   8   7     0.02  -0.06   0.02     0.09   0.07   0.01     0.04   0.04  -0.04
   9   6     0.01  -0.12  -0.02     0.07   0.06   0.04     0.09   0.06  -0.13
  10   1     0.00  -0.04  -0.01     0.03   0.02   0.02     0.01   0.04  -0.04
  11   1    -0.01  -0.03  -0.01     0.02   0.02   0.01     0.04   0.01  -0.05
  12   1     0.02  -0.04  -0.01     0.01   0.01   0.01     0.03   0.00  -0.03
  13   6    -0.03  -0.03   0.02     0.12   0.07   0.00     0.01   0.10  -0.06
  14   1    -0.01  -0.01  -0.00     0.04   0.02   0.01    -0.00   0.04  -0.02
  15   1    -0.01   0.00   0.02     0.04   0.03  -0.01    -0.00   0.03  -0.00
  16   1    -0.02  -0.01   0.00     0.03   0.02  -0.00     0.00   0.03  -0.03
  17   6     0.03  -0.02   0.04     0.06   0.05  -0.03     0.09  -0.07  -0.02
  18   1     0.02  -0.01   0.01     0.01   0.01  -0.01     0.04  -0.04  -0.00
  19   1    -0.00  -0.00   0.01     0.02   0.02  -0.01     0.04  -0.02  -0.02
  20   1     0.01   0.00   0.02     0.02   0.02  -0.01     0.02  -0.02   0.02
  21   1     0.05  -0.01   0.00     0.02   0.00   0.00    -0.02  -0.01   0.02
  22   6    -0.14   0.00   0.10     0.06  -0.09  -0.00     0.12  -0.01   0.00
  23   8    -0.17   0.13  -0.05     0.07  -0.02  -0.11     0.15  -0.11  -0.07
  24   7    -0.18  -0.20   0.31     0.05  -0.26   0.16     0.02   0.14  -0.05
  25   1    -0.04  -0.03   0.06     0.01  -0.05   0.02    -0.02   0.03  -0.02
  26   1    -0.05  -0.07   0.10     0.01  -0.07   0.05     0.00   0.05   0.01
  27   7    -0.12   0.04   0.11     0.09  -0.06  -0.01     0.24  -0.07   0.15
  28   1    -0.03  -0.01   0.06     0.02  -0.04   0.02     0.06   0.01   0.05
  29   1    -0.03   0.05  -0.01     0.03   0.01  -0.03     0.09  -0.04   0.05
  30   6     0.05   0.12  -0.01    -0.14  -0.04   0.03    -0.02  -0.04  -0.09
  31   8     0.11   0.18   0.14    -0.06  -0.07  -0.14    -0.21  -0.08  -0.07
  32   7    -0.11   0.24   0.06    -0.05  -0.07  -0.09    -0.02  -0.15   0.09
  33   1    -0.04   0.09   0.04     0.02  -0.03  -0.07    -0.04  -0.06   0.05
  34   1    -0.04   0.06  -0.03    -0.04  -0.02   0.03     0.04  -0.03  -0.00
  35   7     0.17  -0.01  -0.24    -0.40  -0.00   0.39     0.23   0.06  -0.37
  36   1     0.02  -0.01  -0.08    -0.10   0.00   0.10     0.07   0.02  -0.07
  37   1     0.05  -0.02  -0.05    -0.08   0.00   0.07     0.02   0.03  -0.07
  38   6    -0.08   0.03  -0.07    -0.11  -0.01  -0.04    -0.06   0.02   0.06
  39   8     0.04  -0.04  -0.04    -0.05   0.02  -0.06    -0.04   0.06   0.06
  40   7    -0.09   0.23  -0.02     0.01   0.22  -0.10     0.12   0.29  -0.03
  41   1    -0.01   0.06   0.03    -0.00   0.05  -0.01     0.04   0.08  -0.01
  42   1    -0.07   0.05  -0.00    -0.06  -0.01   0.00    -0.02   0.01   0.02
  43   7    -0.21  -0.07  -0.18    -0.31  -0.26   0.00    -0.28  -0.28   0.17
  44   1    -0.07   0.00  -0.06    -0.07  -0.04  -0.01    -0.04  -0.03   0.03
  45   1    -0.04  -0.03  -0.06    -0.06  -0.05  -0.01    -0.05  -0.05   0.04
  46   6     0.05  -0.02  -0.04     0.07   0.05  -0.05    -0.08   0.01   0.04
  47   8     0.07  -0.01   0.01     0.14   0.09  -0.12    -0.06   0.04   0.16
  48   7     0.02  -0.05  -0.16     0.09  -0.03  -0.02    -0.11  -0.00  -0.05
  49   1     0.01  -0.01  -0.05     0.04  -0.02  -0.02    -0.03  -0.00  -0.00
  50   1     0.01  -0.01  -0.05     0.01  -0.01   0.00    -0.03  -0.01  -0.03
  51   7     0.07  -0.02  -0.01     0.01   0.10  -0.01    -0.09  -0.00   0.00
  52   1     0.01  -0.01  -0.01    -0.01   0.02   0.01    -0.03  -0.00  -0.02
  53   1     0.02  -0.00   0.01     0.00   0.04  -0.01    -0.02   0.01   0.02
                     10                     11                     12
                        a                      a                      a 
 Frequencies --    61.3538                63.1604                64.9611
 Red. masses --    12.3052                12.6878                12.9882
 Frc consts  --     0.0000                 0.0000                 0.0000
 IR Inten    --     1.7507                 1.2636                 1.9957
 Raman Activ --     0.0000                 0.0000                 0.0000
 Depolar     --     0.0000                 0.0000                 0.0000
 Atom AN      X      Y      Z        X      Y      Z        X      Y      Z
   1   8     0.11  -0.11   0.19    -0.17  -0.03   0.19    -0.08   0.00  -0.04
   2   6     0.08  -0.04   0.20    -0.13  -0.05   0.12     0.01   0.09  -0.15
   3   1     0.03  -0.02   0.06    -0.04  -0.03   0.02    -0.02   0.05  -0.06
   4   1     0.02  -0.01   0.08    -0.05  -0.01   0.04     0.03   0.03  -0.05
   5   6     0.07   0.05   0.15    -0.05  -0.01   0.09     0.05   0.06  -0.13
   6   1     0.03   0.01   0.06    -0.02   0.02   0.03     0.02   0.00  -0.03
   7   1     0.04   0.04   0.03    -0.02  -0.02   0.03     0.02   0.02  -0.05
   8   7    -0.05   0.06   0.06     0.06  -0.02   0.03     0.01   0.07  -0.11
   9   6    -0.14  -0.06   0.16     0.10   0.05  -0.01     0.02   0.05  -0.13
  10   1    -0.01  -0.02   0.08     0.02   0.04  -0.00     0.00   0.01  -0.05
  11   1    -0.07  -0.02   0.02     0.05   0.01  -0.01     0.00   0.01  -0.04
  12   1    -0.06  -0.04   0.06     0.02   0.01   0.00     0.01   0.02  -0.04
  13   6     0.07   0.14   0.00     0.08   0.02   0.01    -0.04   0.04  -0.08
  14   1     0.05   0.03   0.03     0.02   0.03   0.00    -0.02   0.01  -0.03
  15   1     0.04   0.06  -0.02     0.01  -0.01   0.01    -0.02   0.01  -0.02
  16   1    -0.00   0.04  -0.02     0.04   0.01  -0.01    -0.01   0.01  -0.02
  17   6    -0.17   0.08  -0.10     0.10  -0.13   0.02     0.04   0.10  -0.05
  18   1    -0.09   0.01  -0.02     0.03  -0.05   0.01     0.03   0.03  -0.02
  19   1    -0.06   0.03  -0.04     0.05  -0.04  -0.01     0.00   0.03  -0.01
  20   1    -0.03   0.04  -0.06     0.02  -0.05   0.02     0.01   0.03  -0.01
  21   1     0.03  -0.03   0.04    -0.04   0.00   0.06     0.00  -0.01   0.01
  22   6    -0.03   0.07   0.01    -0.08   0.06  -0.06     0.05   0.05   0.06
  23   8    -0.04   0.13   0.12    -0.09   0.11  -0.18     0.04   0.19   0.13
  24   7     0.05   0.19  -0.16    -0.15   0.29  -0.23     0.17   0.10  -0.07
  25   1     0.02   0.04  -0.02    -0.05   0.06  -0.05     0.07   0.02   0.01
  26   1     0.02   0.03  -0.05    -0.03   0.03  -0.00     0.05  -0.02  -0.01
  27   7    -0.13  -0.08   0.06    -0.03  -0.22   0.23    -0.07  -0.14   0.12
  28   1    -0.03  -0.02  -0.01    -0.01  -0.03   0.05    -0.02  -0.05   0.00
  29   1    -0.05  -0.03   0.04     0.00  -0.06   0.06    -0.04  -0.03   0.04
  30   6    -0.03  -0.10  -0.05     0.01  -0.02   0.05     0.16  -0.06   0.13
  31   8    -0.07  -0.11   0.03    -0.05  -0.01   0.23     0.37  -0.01   0.27
  32   7    -0.05  -0.10  -0.04     0.15  -0.01  -0.22     0.06   0.10   0.01
  33   1    -0.03  -0.02   0.00     0.04   0.01  -0.05     0.03   0.07   0.00
  34   1    -0.00  -0.03  -0.04     0.04  -0.00  -0.07    -0.02   0.02  -0.02
  35   7     0.06  -0.13  -0.18    -0.07  -0.07   0.14     0.07  -0.26   0.15
  36   1     0.02  -0.04  -0.05     0.01  -0.03  -0.02    -0.01  -0.08   0.02
  37   1     0.00  -0.03  -0.03    -0.01  -0.03   0.04     0.04  -0.09   0.05
  38   6    -0.04   0.05  -0.07    -0.01  -0.04  -0.07    -0.08  -0.04  -0.03
  39   8    -0.12   0.07  -0.10     0.13  -0.16  -0.02    -0.09  -0.05  -0.03
  40   7     0.04   0.06  -0.15    -0.12   0.06   0.06    -0.00   0.08  -0.08
  41   1    -0.00   0.01  -0.05    -0.03  -0.00   0.06    -0.01   0.01  -0.02
  42   1     0.02  -0.00  -0.03    -0.07   0.03   0.01    -0.02  -0.01  -0.01
  43   7    -0.01   0.05   0.00    -0.04   0.01  -0.26    -0.17  -0.16   0.01
  44   1     0.02   0.01   0.00    -0.04   0.02  -0.08    -0.02  -0.02  -0.01
  45   1    -0.01   0.02   0.01     0.00  -0.01  -0.09    -0.03  -0.02  -0.00
  46   6     0.10  -0.05  -0.05     0.08   0.03  -0.02    -0.11  -0.05   0.02
  47   8     0.19  -0.01  -0.34     0.02  -0.02   0.03    -0.09  -0.02   0.09
  48   7     0.19  -0.20   0.22     0.04   0.10  -0.18    -0.07  -0.03   0.18
  49   1     0.08  -0.07   0.03    -0.01   0.04  -0.06    -0.01  -0.00   0.09
  50   1     0.03  -0.06   0.11     0.03   0.04  -0.05    -0.03  -0.02   0.03
  51   7    -0.05   0.03   0.01     0.21   0.02   0.06    -0.21  -0.10  -0.24
  52   1    -0.02  -0.00   0.05     0.07   0.01   0.01    -0.05  -0.03  -0.06
  53   1    -0.02   0.03  -0.03     0.06  -0.01   0.03    -0.05  -0.02  -0.05
                     13                     14                     15
                        a                      a                      a 
 Frequencies --    71.5596                77.6369                83.5216
 Red. masses --    12.3407                12.5535                12.6038
 Frc consts  --     0.0000                 0.0000                 0.0000
 IR Inten    --     7.3238                 4.8025                10.7756
 Raman Activ --     0.0000                 0.0000                 0.0000
 Depolar     --     0.0000                 0.0000                 0.0000
 Atom AN      X      Y      Z        X      Y      Z        X      Y      Z
   1   8     0.06   0.06  -0.04    -0.02  -0.10   0.01    -0.01   0.03  -0.06
   2   6     0.01   0.08   0.07     0.00  -0.01  -0.00    -0.01  -0.05  -0.07
   3   1     0.02   0.01   0.03    -0.01   0.01  -0.01    -0.00  -0.02  -0.02
   4   1    -0.00   0.03   0.04     0.02   0.00   0.00    -0.02  -0.02  -0.03
   5   6    -0.10   0.15   0.04    -0.01   0.02  -0.02     0.05  -0.10  -0.05
   6   1    -0.04   0.05  -0.00    -0.01   0.01  -0.01     0.02  -0.03  -0.01
   7   1    -0.04   0.05   0.03    -0.01   0.00   0.00     0.01  -0.04  -0.02
   8   7    -0.11   0.16  -0.05     0.01   0.02  -0.04     0.09  -0.11   0.02
   9   6    -0.08   0.12  -0.13     0.08   0.01  -0.22     0.05  -0.05   0.14
  10   1    -0.03   0.05  -0.04    -0.00   0.02  -0.09     0.03  -0.01   0.06
  11   1    -0.02   0.03  -0.06     0.03   0.00  -0.07     0.02  -0.02   0.04
  12   1    -0.02   0.01  -0.03     0.05  -0.01  -0.07    -0.01  -0.01   0.04
  13   6    -0.14   0.23  -0.07    -0.17   0.04  -0.02     0.19  -0.16   0.02
  14   1    -0.04   0.07  -0.02    -0.07   0.01  -0.03     0.06  -0.04   0.02
  15   1    -0.04   0.08  -0.01    -0.06   0.01   0.03     0.06  -0.06  -0.02
  16   1    -0.05   0.07  -0.04    -0.05   0.01  -0.01     0.07  -0.05   0.01
  17   6    -0.08   0.10  -0.04     0.13  -0.02   0.11     0.02  -0.09  -0.06
  18   1    -0.02   0.03  -0.01     0.08  -0.01   0.03    -0.01  -0.02  -0.01
  19   1    -0.01   0.03  -0.01     0.04  -0.01   0.03     0.01  -0.03  -0.02
  20   1    -0.03   0.02  -0.01     0.02  -0.01   0.07     0.01  -0.02  -0.03
  21   1     0.01   0.01  -0.02    -0.00  -0.02   0.01    -0.00  -0.00  -0.02
  22   6     0.05  -0.02   0.00    -0.09   0.03   0.10     0.04   0.08   0.07
  23   8     0.06   0.02   0.03    -0.11   0.04   0.21     0.04   0.25   0.22
  24   7     0.10  -0.06   0.01    -0.04   0.05   0.05     0.23   0.03  -0.00
  25   1     0.03  -0.01   0.00    -0.01   0.01   0.02     0.09   0.02   0.01
  26   1     0.03  -0.02  -0.00    -0.01   0.01  -0.00     0.06  -0.02  -0.02
  27   7     0.02  -0.02  -0.03    -0.16   0.02   0.07    -0.13  -0.05   0.03
  28   1     0.00  -0.02  -0.01    -0.04   0.01  -0.00    -0.03  -0.04  -0.03
  29   1    -0.01  -0.01  -0.00    -0.06   0.00   0.03    -0.08   0.00   0.02
  30   6     0.03   0.01   0.00     0.03   0.02   0.05    -0.05  -0.10  -0.07
  31   8     0.13   0.02  -0.02    -0.13  -0.02  -0.01     0.06  -0.10  -0.10
  32   7    -0.05   0.06   0.02     0.20  -0.12   0.03    -0.15  -0.05  -0.04
  33   1    -0.01   0.03   0.00     0.04  -0.07   0.01    -0.03   0.00  -0.01
  34   1    -0.03   0.01   0.01     0.08  -0.02   0.04    -0.06  -0.02  -0.01
  35   7    -0.00  -0.06   0.01     0.03   0.19   0.14    -0.06  -0.18  -0.10
  36   1    -0.02  -0.02   0.00     0.05   0.05   0.03    -0.04  -0.05  -0.01
  37   1     0.01  -0.03  -0.00     0.00   0.08   0.01    -0.01  -0.05  -0.02
  38   6     0.07  -0.08  -0.03    -0.00   0.06  -0.15    -0.04   0.05  -0.06
  39   8     0.08  -0.17  -0.00     0.04   0.41  -0.31    -0.13   0.07  -0.09
  40   7     0.09   0.00  -0.02    -0.06  -0.24  -0.20     0.01  -0.00  -0.13
  41   1     0.05   0.03  -0.01     0.06   0.06  -0.14     0.01   0.02  -0.06
  42   1     0.03   0.04  -0.02     0.05  -0.04  -0.06     0.04   0.03  -0.04
  43   7     0.03  -0.12  -0.07    -0.05  -0.09   0.04     0.00   0.06   0.02
  44   1     0.01  -0.01  -0.03    -0.04  -0.11   0.05     0.02   0.01   0.01
  45   1     0.01  -0.04  -0.02    -0.03   0.00   0.04    -0.01   0.03   0.02
  46   6    -0.04  -0.13   0.07     0.07  -0.06   0.04    -0.05   0.13   0.09
  47   8    -0.18  -0.25  -0.15     0.11  -0.06   0.10    -0.02   0.17   0.23
  48   7    -0.10  -0.11  -0.12     0.05  -0.12  -0.05    -0.17   0.05  -0.29
  49   1    -0.06  -0.03  -0.11     0.02  -0.03  -0.02    -0.05   0.01  -0.10
  50   1     0.00   0.01   0.02     0.01  -0.04  -0.02    -0.04   0.02  -0.09
  51   7     0.18  -0.06   0.55     0.08  -0.06   0.11     0.02   0.18   0.33
  52   1     0.06  -0.01   0.14    -0.01  -0.02  -0.03    -0.02   0.04   0.03
  53   1     0.04  -0.04   0.10     0.01  -0.00  -0.01     0.00   0.05   0.07
                     16                     17                     18
                        a                      a                      a 
 Frequencies --    87.5511                94.1443               106.1531
 Red. masses --    11.6378                11.5682                11.5147
 Frc consts  --     0.0000                 0.0000                 0.0000
 IR Inten    --     4.1834                 2.4793                 4.0564
 Raman Activ --     0.0000                 0.0000                 0.0000
 Depolar     --     0.0000                 0.0000                 0.0000
 Atom AN      X      Y      Z        X      Y      Z        X      Y      Z
   1   8     0.08   0.14  -0.12    -0.08  -0.01   0.00    -0.08   0.11   0.09
   2   6    -0.09  -0.08   0.13    -0.04   0.02  -0.03    -0.16  -0.10   0.18
   3   1     0.03  -0.08   0.07    -0.02   0.02  -0.02    -0.01  -0.10   0.06
   4   1    -0.10  -0.03   0.06    -0.00   0.01  -0.01    -0.12  -0.03   0.09
   5   6    -0.18  -0.01   0.10    -0.02   0.02  -0.03    -0.11   0.02   0.11
   6   1    -0.08   0.04   0.00    -0.01   0.02  -0.01    -0.04   0.05   0.04
   7   1    -0.08  -0.03   0.06    -0.01  -0.01  -0.00    -0.05  -0.01   0.05
   8   7     0.00  -0.03   0.00     0.08   0.02  -0.04     0.05  -0.00  -0.05
   9   6     0.04   0.10   0.05     0.21   0.08  -0.29     0.07   0.09  -0.00
  10   1     0.02   0.08   0.04     0.02   0.05  -0.13     0.03   0.06   0.02
  11   1     0.05   0.02  -0.02     0.09   0.02  -0.09     0.05   0.02  -0.02
  12   1    -0.02   0.01   0.03     0.10   0.02  -0.09    -0.01   0.01   0.01
  13   6     0.14   0.03  -0.04    -0.16   0.02  -0.00     0.19   0.10  -0.10
  14   1     0.05   0.04   0.01    -0.08   0.01  -0.04     0.07   0.04  -0.00
  15   1     0.04  -0.01  -0.02    -0.07   0.00   0.05     0.06   0.03  -0.05
  16   1     0.07   0.01  -0.03    -0.04   0.01  -0.00     0.06   0.03  -0.05
  17   6    -0.00  -0.22  -0.10     0.26  -0.06   0.17     0.02  -0.22  -0.18
  18   1    -0.04  -0.07  -0.02     0.13  -0.02   0.04    -0.03  -0.09  -0.04
  19   1     0.05  -0.07  -0.04     0.09  -0.02   0.05     0.04  -0.07  -0.09
  20   1    -0.01  -0.10  -0.04     0.05  -0.03   0.10    -0.00  -0.08  -0.06
  21   1    -0.02   0.04  -0.08    -0.01  -0.01   0.01    -0.04   0.06   0.01
  22   6    -0.03   0.05   0.06    -0.09  -0.01   0.08    -0.07  -0.15  -0.07
  23   8    -0.05   0.27   0.20    -0.11   0.00   0.23    -0.08  -0.28  -0.02
  24   7     0.17  -0.07   0.02     0.00  -0.03   0.03    -0.11  -0.16  -0.06
  25   1     0.07   0.01   0.00     0.01  -0.01   0.02    -0.03  -0.05  -0.01
  26   1     0.05  -0.05  -0.03    -0.00  -0.01  -0.02    -0.03  -0.02  -0.03
  27   7    -0.25  -0.08  -0.03    -0.21  -0.01  -0.02    -0.07  -0.05  -0.16
  28   1    -0.06  -0.07  -0.04    -0.05  -0.01  -0.03    -0.02  -0.00  -0.05
  29   1    -0.12   0.00   0.00    -0.08  -0.00   0.01    -0.02  -0.02  -0.04
  30   6     0.03   0.05  -0.04    -0.09  -0.06  -0.07     0.08   0.11   0.05
  31   8     0.00   0.01  -0.25    -0.05  -0.05  -0.02     0.21   0.17   0.18
  32   7     0.05  -0.05   0.13    -0.17   0.00  -0.08    -0.02   0.26  -0.04
  33   1     0.01  -0.05   0.03    -0.04   0.02  -0.02     0.01   0.11  -0.01
  34   1     0.02  -0.01   0.08    -0.06  -0.00  -0.04    -0.03   0.06  -0.04
  35   7     0.05   0.19   0.01    -0.08  -0.14  -0.14     0.06  -0.04  -0.00
  36   1     0.01   0.06   0.04    -0.04  -0.04  -0.03    -0.01  -0.02  -0.01
  37   1     0.01   0.06  -0.02    -0.03  -0.05  -0.02     0.02  -0.02   0.02
  38   6     0.01  -0.03   0.02     0.04  -0.05   0.13     0.02   0.00   0.01
  39   8     0.13  -0.03   0.04    -0.05  -0.17   0.20    -0.07   0.12  -0.06
  40   7    -0.02   0.06   0.08     0.13   0.08   0.09     0.09  -0.13  -0.10
  41   1    -0.02  -0.02   0.06    -0.02  -0.07   0.06     0.05   0.03  -0.09
  42   1    -0.06  -0.03   0.04    -0.00  -0.04   0.05     0.08  -0.01  -0.04
  43   7    -0.08  -0.11  -0.03     0.10   0.03   0.14     0.04  -0.05   0.16
  44   1    -0.02  -0.01  -0.01     0.06   0.05   0.02     0.01  -0.05   0.06
  45   1     0.00  -0.01  -0.02     0.02   0.00   0.04    -0.01  -0.01   0.06
  46   6    -0.00  -0.04  -0.06     0.08   0.08  -0.09    -0.01   0.05   0.02
  47   8    -0.16  -0.15  -0.08     0.13   0.11  -0.27     0.09   0.13   0.03
  48   7     0.05   0.18   0.11     0.12  -0.01   0.01    -0.02  -0.08   0.01
  49   1    -0.02   0.07   0.05     0.04  -0.01  -0.02     0.02  -0.03   0.00
  50   1     0.04   0.07   0.02     0.02  -0.00   0.03    -0.02  -0.04   0.00
  51   7     0.10  -0.14  -0.23     0.01   0.15  -0.03    -0.11   0.10   0.05
  52   1     0.06  -0.02  -0.03     0.01   0.03   0.06    -0.05   0.01  -0.01
  53   1     0.03  -0.06  -0.04     0.00   0.05   0.01    -0.04   0.04  -0.00
                     19                     20                     21
                        a                      a                      a 
 Frequencies --   117.4313               128.2124               144.9280
 Red. masses --    11.9958                12.8843                12.7026
 Frc consts  --     0.0000                 0.0000                 0.0000
 IR Inten    --    15.1439                29.7841                10.1957
 Raman Activ --     0.0000                 0.0000                 0.0000
 Depolar     --     0.0000                 0.0000                 0.0000
 Atom AN      X      Y      Z        X      Y      Z        X      Y      Z
   1   8    -0.07   0.01   0.11    -0.14   0.09  -0.05     0.05   0.07  -0.10
   2   6     0.05   0.07  -0.10    -0.18  -0.02   0.03    -0.02  -0.02   0.00
   3   1    -0.02   0.03  -0.07    -0.03  -0.03   0.02     0.01  -0.02   0.02
   4   1     0.04   0.02  -0.03    -0.08  -0.01   0.01    -0.03  -0.01   0.00
   5   6     0.23   0.09  -0.12    -0.17  -0.02   0.03    -0.07  -0.02   0.01
   6   1     0.10   0.01   0.01    -0.05  -0.00   0.01    -0.03   0.00  -0.01
   7   1     0.10   0.05  -0.07    -0.05  -0.00   0.01    -0.03  -0.01   0.01
   8   7     0.09   0.11  -0.16    -0.21  -0.02  -0.00    -0.03  -0.03   0.02
   9   6    -0.03  -0.02  -0.00    -0.18  -0.03  -0.07     0.00   0.02  -0.00
  10   1     0.02  -0.03   0.03    -0.06  -0.01  -0.03    -0.01   0.02  -0.00
  11   1    -0.04  -0.00   0.00    -0.05  -0.01  -0.02     0.01   0.01  -0.00
  12   1    -0.03  -0.01   0.01    -0.04  -0.01  -0.02     0.00   0.01  -0.00
  13   6     0.18   0.13  -0.18    -0.23   0.04  -0.02    -0.03  -0.03   0.02
  14   1     0.07   0.03  -0.03    -0.07   0.02  -0.01    -0.01  -0.00   0.01
  15   1     0.07   0.05  -0.07    -0.07   0.02   0.01    -0.01  -0.01   0.01
  16   1     0.04   0.04  -0.06    -0.07   0.01  -0.02    -0.00  -0.01   0.01
  17   6    -0.05   0.19  -0.29    -0.16  -0.05   0.03     0.00  -0.06   0.04
  18   1    -0.04   0.04  -0.07    -0.03  -0.04   0.01     0.00  -0.02   0.01
  19   1    -0.04   0.06  -0.10    -0.05  -0.01  -0.01     0.00  -0.02   0.01
  20   1     0.01   0.09  -0.10    -0.05   0.00   0.03    -0.00  -0.02   0.02
  21   1     0.01  -0.01   0.05    -0.05   0.02  -0.03    -0.00   0.02  -0.05
  22   6    -0.16  -0.00   0.04     0.10   0.02  -0.03    -0.02   0.04   0.03
  23   8    -0.18  -0.03   0.13     0.11   0.14  -0.05    -0.02   0.05   0.01
  24   7    -0.14  -0.00   0.02     0.18  -0.05  -0.02    -0.02   0.05   0.03
  25   1    -0.04   0.00   0.01     0.06  -0.00  -0.01    -0.01   0.02   0.00
  26   1    -0.04   0.01  -0.01     0.05  -0.03  -0.00    -0.01   0.01   0.01
  27   7    -0.23   0.01  -0.02     0.06  -0.04  -0.04    -0.01   0.03   0.06
  28   1    -0.06   0.00  -0.03     0.01  -0.04   0.00    -0.00   0.01   0.02
  29   1    -0.08   0.00   0.01     0.00  -0.00  -0.01     0.00   0.01   0.01
  30   6    -0.06   0.01  -0.02    -0.00   0.01  -0.05     0.09   0.06   0.05
  31   8    -0.17  -0.01  -0.05     0.08   0.02  -0.09    -0.02   0.02  -0.09
  32   7     0.01  -0.06  -0.01    -0.08   0.07  -0.03     0.21  -0.09   0.17
  33   1    -0.01  -0.04   0.00    -0.02   0.03  -0.01     0.05  -0.07   0.03
  34   1     0.02  -0.01   0.01    -0.05   0.01  -0.00     0.09  -0.01   0.08
  35   7    -0.03   0.10  -0.02    -0.03  -0.04  -0.05     0.12   0.22   0.10
  36   1     0.01   0.03  -0.01    -0.03  -0.01  -0.00     0.05   0.06   0.04
  37   1    -0.02   0.03  -0.00    -0.00  -0.02  -0.01     0.03   0.07   0.02
  38   6     0.08  -0.10   0.09    -0.01   0.02   0.03     0.02  -0.16  -0.10
  39   8     0.11  -0.20   0.14     0.04  -0.01   0.06    -0.01  -0.41  -0.03
  40   7     0.09  -0.02   0.13    -0.06   0.05   0.10     0.06   0.02  -0.10
  41   1     0.03   0.01   0.04     0.00   0.03   0.03    -0.02  -0.06   0.01
  42   1     0.03   0.03   0.02    -0.01   0.05   0.01     0.00   0.01  -0.03
  43   7     0.06  -0.11   0.03    -0.05   0.01  -0.02     0.06  -0.06  -0.27
  44   1     0.01  -0.02   0.00    -0.02   0.02  -0.01     0.02   0.03  -0.09
  45   1     0.01  -0.05   0.01     0.00   0.01  -0.02     0.01  -0.04  -0.08
  46   6     0.05  -0.04   0.10     0.24  -0.02   0.07    -0.08   0.09   0.04
  47   8     0.12   0.00   0.33     0.42   0.09   0.35     0.15   0.27  -0.04
  48   7     0.01  -0.08  -0.06     0.22  -0.19  -0.07    -0.08  -0.26   0.05
  49   1     0.01  -0.02   0.02     0.10  -0.06   0.03     0.04  -0.10  -0.00
  50   1    -0.01  -0.03  -0.05     0.03  -0.08  -0.05    -0.08  -0.11   0.03
  51   7     0.04  -0.09  -0.02     0.13  -0.04  -0.08    -0.33   0.22   0.10
  52   1    -0.00  -0.02  -0.05    -0.01  -0.03  -0.08    -0.11   0.04   0.05
  53   1     0.01  -0.02   0.02     0.04   0.01  -0.00    -0.09   0.08   0.02
                     22                     23                     24
                        a                      a                      a 
 Frequencies --   161.3242               166.1944               176.7750
 Red. masses --    12.2718                12.3234                 7.3718
 Frc consts  --     0.0000                 0.0000                 0.0000
 IR Inten    --     8.8353                63.8619                50.7596
 Raman Activ --     0.0000                 0.0000                 0.0000
 Depolar     --     0.0000                 0.0000                 0.0000
 Atom AN      X      Y      Z        X      Y      Z        X      Y      Z
   1   8     0.26   0.14  -0.35    -0.05  -0.08   0.05    -0.05  -0.10   0.06
   2   6     0.07   0.04  -0.04    -0.01  -0.01  -0.01    -0.01  -0.01   0.00
   3   1     0.07  -0.01   0.04    -0.02   0.01  -0.01    -0.02   0.01  -0.01
   4   1    -0.02   0.01   0.00     0.02  -0.00  -0.01     0.02  -0.00  -0.00
   5   6    -0.18   0.05  -0.03     0.02  -0.02  -0.00     0.01  -0.01   0.00
   6   1    -0.09   0.03  -0.06     0.01  -0.01   0.00     0.00  -0.00   0.00
   7   1    -0.09  -0.01   0.04     0.01  -0.00  -0.01     0.01  -0.00  -0.00
   8   7    -0.05   0.04  -0.01    -0.01  -0.02   0.03     0.02  -0.01   0.03
   9   6    -0.01   0.18   0.04    -0.03  -0.05   0.02     0.02  -0.02   0.01
  10   1    -0.00   0.09   0.03    -0.00  -0.03   0.00     0.01   0.00   0.01
  11   1     0.03   0.05   0.00    -0.02  -0.01   0.02     0.01  -0.01  -0.01
  12   1    -0.03   0.05   0.02    -0.00  -0.01   0.00     0.00  -0.01   0.01
  13   6     0.05  -0.01  -0.01    -0.03  -0.03   0.03    -0.00  -0.03   0.03
  14   1     0.03  -0.01   0.01    -0.02   0.01  -0.00     0.00  -0.02   0.01
  15   1     0.02  -0.01  -0.03    -0.02  -0.02   0.02     0.00  -0.00   0.01
  16   1     0.02  -0.00   0.01     0.01  -0.01   0.01    -0.01  -0.01   0.01
  17   6    -0.04  -0.06  -0.06    -0.01   0.03   0.05     0.03   0.01   0.05
  18   1    -0.04   0.01  -0.02     0.01   0.01   0.01     0.01   0.01   0.01
  19   1     0.03  -0.02   0.01    -0.02   0.01   0.01     0.00   0.00   0.02
  20   1    -0.03  -0.06  -0.04     0.00   0.02   0.02     0.01   0.00   0.02
  21   1     0.03   0.04  -0.13    -0.01  -0.01   0.03    -0.00  -0.03   0.03
  22   6    -0.14   0.11   0.03    -0.03   0.11  -0.17     0.02   0.06  -0.07
  23   8    -0.15   0.04  -0.16    -0.06   0.46  -0.44     0.02   0.24  -0.15
  24   7    -0.32   0.18   0.09    -0.03  -0.08  -0.02     0.07  -0.05  -0.01
  25   1    -0.11   0.04   0.02    -0.00  -0.01  -0.01     0.03  -0.00  -0.01
  26   1    -0.08   0.03   0.08     0.00  -0.10   0.08     0.02  -0.05   0.02
  27   7     0.04   0.15   0.19    -0.08  -0.12  -0.01    -0.03  -0.08   0.00
  28   1     0.01   0.07   0.08    -0.02  -0.06  -0.01    -0.01  -0.03  -0.02
  29   1     0.05   0.04   0.02    -0.04   0.06  -0.09    -0.03   0.03  -0.04
  30   6     0.02  -0.17  -0.01     0.00   0.06   0.02    -0.05   0.01  -0.03
  31   8     0.12  -0.19  -0.03    -0.05   0.06   0.05    -0.05   0.02  -0.01
  32   7    -0.03  -0.16  -0.00     0.03   0.04   0.02    -0.06   0.04  -0.06
  33   1     0.01  -0.04  -0.02     0.01   0.01   0.01    -0.02   0.02  -0.00
  34   1    -0.01  -0.04  -0.01     0.02   0.01  -0.00    -0.03   0.01  -0.01
  35   7    -0.02  -0.27   0.02     0.03   0.10   0.01    -0.04   0.00  -0.05
  36   1    -0.04  -0.07   0.03     0.02   0.03  -0.00    -0.01   0.00  -0.01
  37   1    -0.01  -0.08   0.01    -0.00   0.03   0.00    -0.01  -0.00  -0.02
  38   6     0.06  -0.01   0.06     0.06  -0.10   0.09     0.16   0.00   0.06
  39   8     0.04   0.08   0.04    -0.09   0.02   0.03     0.27   0.04   0.06
  40   7     0.07  -0.08   0.04     0.31  -0.08  -0.15    -0.06  -0.21   0.24
  41   1     0.06   0.05  -0.03    -0.05  -0.19  -0.02     0.26   0.36  -0.08
  42   1     0.06   0.02  -0.01    -0.02  -0.27   0.06     0.27   0.40  -0.13
  43   7     0.03  -0.06   0.14     0.07  -0.16   0.31     0.03  -0.14  -0.01
  44   1    -0.01  -0.04   0.05     0.10   0.01   0.06    -0.12  -0.15   0.05
  45   1    -0.00  -0.03   0.04     0.06   0.02   0.08    -0.02  -0.09  -0.00
  46   6     0.04   0.00   0.01    -0.00   0.00   0.01    -0.09   0.03  -0.05
  47   8     0.08   0.02   0.06    -0.01  -0.01   0.00    -0.04   0.08  -0.13
  48   7     0.05  -0.03   0.00    -0.01  -0.00  -0.02    -0.05  -0.03   0.11
  49   1     0.02  -0.01   0.01    -0.01   0.00  -0.01     0.00  -0.02  -0.00
  50   1     0.00  -0.02  -0.01     0.00   0.01   0.01    -0.04  -0.03   0.00
  51   7     0.02  -0.00  -0.01     0.01   0.00   0.05    -0.17   0.07  -0.02
  52   1    -0.01  -0.00  -0.03     0.00   0.00   0.01    -0.06   0.01  -0.02
  53   1     0.00   0.01  -0.01     0.00   0.00   0.01    -0.05   0.02  -0.03
                     25                     26                     27
                        a                      a                      a 
 Frequencies --   193.7960               197.1607               230.0212
 Red. masses --    10.6337                11.0606                12.8925
 Frc consts  --     0.0000                 0.0000                 0.0000
 IR Inten    --    45.1766               115.1005                33.4879
 Raman Activ --     0.0000                 0.0000                 0.0000
 Depolar     --     0.0000                 0.0000                 0.0000
 Atom AN      X      Y      Z        X      Y      Z        X      Y      Z
   1   8    -0.01  -0.48  -0.14    -0.01  -0.30  -0.09     0.27   0.30  -0.23
   2   6     0.04   0.05  -0.07     0.03   0.04  -0.06     0.08  -0.02  -0.01
   3   1    -0.01   0.09  -0.02    -0.01   0.06  -0.02     0.07  -0.06   0.03
   4   1     0.12   0.03  -0.01     0.08   0.02  -0.01    -0.06  -0.01   0.01
   5   6    -0.22   0.09  -0.06    -0.13   0.06  -0.05     0.00  -0.01  -0.02
   6   1    -0.11   0.05  -0.07    -0.07   0.03  -0.05    -0.00  -0.01  -0.02
   7   1    -0.11  -0.00   0.04    -0.07  -0.00   0.02    -0.00   0.00   0.01
   8   7    -0.04   0.10   0.02    -0.01   0.07   0.01    -0.02  -0.01  -0.04
   9   6     0.00   0.25   0.10     0.02   0.17   0.05    -0.00   0.04  -0.01
  10   1     0.02   0.18   0.09     0.02   0.13   0.06    -0.03  -0.10  -0.07
  11   1     0.07   0.06  -0.07     0.06   0.04  -0.06    -0.03   0.03   0.13
  12   1    -0.08   0.00   0.07    -0.05  -0.00   0.05     0.06   0.13  -0.07
  13   6     0.11  -0.05   0.05     0.08  -0.03   0.03    -0.04  -0.04  -0.02
  14   1     0.05  -0.03   0.03     0.04  -0.04   0.02    -0.03   0.01  -0.02
  15   1     0.04  -0.03  -0.03     0.04  -0.01  -0.02    -0.03  -0.03   0.01
  16   1     0.04  -0.01   0.04     0.01  -0.01   0.03     0.02  -0.01  -0.00
  17   6    -0.02   0.03   0.01     0.00   0.03   0.00    -0.03  -0.00  -0.04
  18   1    -0.05   0.09  -0.01    -0.03   0.07  -0.01     0.01  -0.04  -0.00
  19   1     0.06  -0.01   0.07     0.05  -0.00   0.05    -0.03   0.00  -0.04
  20   1    -0.03  -0.07  -0.05    -0.01  -0.05  -0.04     0.00   0.03   0.01
  21   1     0.02  -0.12  -0.00     0.02  -0.08  -0.00     0.01   0.14  -0.08
  22   6     0.04  -0.05  -0.01     0.02  -0.02  -0.01     0.07  -0.05  -0.04
  23   8     0.04  -0.04   0.07     0.02  -0.00   0.00     0.08   0.02   0.04
  24   7     0.09  -0.06  -0.04     0.04  -0.03  -0.01     0.14  -0.06  -0.07
  25   1     0.03  -0.02  -0.01     0.01  -0.01  -0.00     0.04  -0.06   0.03
  26   1     0.02  -0.00  -0.03     0.01  -0.00  -0.01     0.04  -0.06   0.02
  27   7    -0.03  -0.05  -0.08     0.00  -0.02  -0.04    -0.04  -0.13  -0.08
  28   1    -0.01  -0.03  -0.03    -0.00  -0.03   0.01    -0.00   0.01  -0.11
  29   1    -0.02  -0.02  -0.00    -0.01  -0.02   0.01    -0.04   0.03  -0.07
  30   6    -0.08   0.01   0.02     0.02   0.06   0.06    -0.16  -0.00   0.17
  31   8    -0.13   0.03   0.15    -0.08   0.06   0.07    -0.43   0.02   0.52
  32   7    -0.05   0.05  -0.08     0.09   0.01   0.06     0.05  -0.06  -0.06
  33   1    -0.04   0.03   0.01     0.02  -0.01   0.01    -0.05  -0.01   0.05
  34   1    -0.03   0.01  -0.04     0.06   0.01   0.00     0.06  -0.01  -0.08
  35   7    -0.05   0.00  -0.03     0.08   0.12  -0.00    -0.00   0.01  -0.04
  36   1     0.03  -0.01  -0.06     0.02   0.04   0.01     0.08  -0.01  -0.11
  37   1     0.00   0.00  -0.03    -0.01   0.04   0.04    -0.02  -0.00   0.02
  38   6     0.11   0.03  -0.01    -0.19  -0.06   0.02    -0.01   0.00   0.00
  39   8     0.29   0.15  -0.05    -0.48  -0.29   0.10    -0.01  -0.01   0.00
  40   7     0.04   0.08   0.07    -0.06  -0.08  -0.11    -0.01  -0.00   0.01
  41   1    -0.06  -0.10   0.10     0.06   0.11  -0.12     0.01   0.02  -0.00
  42   1    -0.16  -0.18   0.10     0.21   0.24  -0.13     0.02   0.03  -0.01
  43   7     0.03  -0.03  -0.09    -0.05   0.08   0.11     0.00   0.01  -0.00
  44   1    -0.00   0.00  -0.03     0.02   0.02   0.03    -0.01  -0.01   0.00
  45   1     0.04   0.01  -0.04    -0.06  -0.01   0.06    -0.00  -0.00   0.00
  46   6    -0.03   0.00   0.05     0.12   0.01  -0.04     0.01   0.00   0.00
  47   8     0.05   0.06   0.08     0.07  -0.04   0.02     0.01   0.00   0.01
  48   7    -0.03  -0.12   0.02     0.12   0.11  -0.05     0.01  -0.00  -0.01
  49   1     0.02  -0.04   0.02     0.01   0.04  -0.02     0.00  -0.00   0.00
  50   1    -0.03  -0.04   0.03     0.04   0.03  -0.05     0.00  -0.00  -0.00
  51   7    -0.10   0.03   0.00     0.19  -0.04  -0.01     0.01  -0.00  -0.01
  52   1    -0.03   0.00   0.03     0.04  -0.01  -0.06     0.00  -0.00   0.00
  53   1    -0.02   0.02   0.04     0.05  -0.03  -0.05     0.00  -0.00   0.00
                     28                     29                     30
                        a                      a                      a 
 Frequencies --   257.7156               261.5600               294.3356
 Red. masses --     2.7842                 5.0510                 2.6203
 Frc consts  --     0.0000                 0.0000                 0.0000
 IR Inten    --   120.9961                21.5199               116.6898
 Raman Activ --     0.0000                 0.0000                 0.0000
 Depolar     --     0.0000                 0.0000                 0.0000
 Atom AN      X      Y      Z        X      Y      Z        X      Y      Z
   1   8     0.02  -0.03  -0.04     0.04   0.29   0.10     0.00   0.01   0.03
   2   6    -0.02  -0.06   0.02     0.14   0.19  -0.09     0.02   0.01  -0.00
   3   1     0.01  -0.05   0.01     0.01   0.14  -0.02    -0.00   0.01  -0.00
   4   1    -0.03  -0.01   0.03     0.08   0.04  -0.12     0.01   0.00  -0.01
   5   6     0.01   0.01  -0.02     0.04  -0.08   0.05     0.01  -0.01   0.00
   6   1     0.01   0.01   0.01    -0.01  -0.04  -0.02     0.00  -0.00  -0.00
   7   1     0.01   0.00  -0.01    -0.00  -0.02   0.04     0.00   0.00   0.00
   8   7     0.01   0.02  -0.01    -0.02  -0.10   0.02    -0.01  -0.01  -0.01
   9   6     0.01   0.05   0.03    -0.03  -0.19  -0.07    -0.00   0.01  -0.01
  10   1    -0.01  -0.06  -0.03     0.04   0.19   0.12    -0.00  -0.00  -0.01
  11   1    -0.02   0.02   0.10     0.07  -0.09  -0.31     0.00   0.00   0.01
  12   1     0.04   0.09  -0.03    -0.14  -0.29   0.11     0.00   0.01  -0.01
  13   6     0.01  -0.03   0.01    -0.07   0.08  -0.04    -0.02  -0.02  -0.00
  14   1    -0.03   0.04  -0.02     0.05  -0.08   0.02     0.00  -0.02  -0.00
  15   1    -0.03  -0.06   0.02     0.05   0.16  -0.04     0.00   0.01  -0.01
  16   1     0.07  -0.01   0.00    -0.19   0.03  -0.03    -0.02  -0.00   0.00
  17   6     0.01   0.04  -0.00     0.01  -0.19  -0.00    -0.01  -0.02  -0.01
  18   1     0.04  -0.06   0.01    -0.11   0.17  -0.04    -0.03   0.04  -0.01
  19   1    -0.06   0.02  -0.06     0.18  -0.09   0.19     0.03  -0.01   0.04
  20   1     0.02   0.07   0.05    -0.05  -0.25  -0.15    -0.01  -0.05  -0.04
  21   1    -0.01   0.01  -0.01     0.03   0.03   0.03    -0.00   0.03   0.03
  22   6    -0.01  -0.02   0.02     0.01  -0.01  -0.01     0.01  -0.01   0.00
  23   8    -0.01   0.07  -0.04     0.01   0.04  -0.03     0.01   0.00   0.01
  24   7    -0.00  -0.02   0.02     0.01  -0.02  -0.00     0.01   0.01  -0.01
  25   1    -0.01   0.05  -0.06     0.00   0.01  -0.02     0.00  -0.01   0.01
  26   1    -0.02   0.12  -0.13    -0.00   0.03  -0.04     0.01  -0.04   0.03
  27   7     0.01   0.21  -0.25    -0.00   0.03  -0.08    -0.01  -0.01  -0.02
  28   1    -0.04  -0.52   0.50    -0.01  -0.15   0.13    -0.00  -0.00  -0.01
  29   1    -0.01  -0.33   0.35    -0.01  -0.09   0.09    -0.01   0.01  -0.01
  30   6    -0.01   0.00   0.02    -0.04  -0.00   0.04     0.01   0.02  -0.02
  31   8    -0.03  -0.00   0.06    -0.09   0.00   0.12    -0.01   0.01   0.02
  32   7     0.00  -0.01   0.00     0.02  -0.01  -0.03    -0.23  -0.04   0.24
  33   1     0.01  -0.00  -0.01    -0.03  -0.00   0.03     0.30   0.01  -0.33
  34   1     0.02   0.00  -0.03    -0.01  -0.01   0.02     0.46   0.04  -0.59
  35   7     0.01  -0.01  -0.00    -0.01  -0.00  -0.00     0.02   0.02  -0.04
  36   1     0.00  -0.00  -0.00     0.03  -0.01  -0.04    -0.18   0.03   0.22
  37   1    -0.00  -0.00   0.01     0.00  -0.00  -0.00    -0.06   0.01   0.07
  38   6     0.02   0.00   0.00     0.01   0.00   0.00     0.02   0.00  -0.01
  39   8     0.02   0.01   0.01     0.01   0.01  -0.00     0.03   0.01  -0.01
  40   7     0.00  -0.03   0.01     0.01  -0.01  -0.00    -0.00  -0.00   0.01
  41   1     0.01   0.01  -0.01    -0.00  -0.00  -0.00     0.00   0.00   0.01
  42   1     0.02   0.01  -0.00     0.00  -0.01   0.00    -0.01  -0.01   0.00
  43   7    -0.02  -0.03   0.02    -0.00  -0.01   0.01     0.00  -0.01  -0.03
  44   1     0.03   0.03  -0.01     0.01   0.01  -0.00    -0.01  -0.01  -0.00
  45   1     0.02   0.02  -0.01     0.00   0.00   0.00     0.00   0.00  -0.01
  46   6    -0.01   0.00  -0.01    -0.00   0.01   0.01    -0.00   0.00   0.01
  47   8    -0.01   0.00  -0.02     0.00   0.01   0.01     0.00   0.01   0.01
  48   7    -0.00  -0.00   0.01    -0.01   0.00  -0.01    -0.00  -0.01  -0.01
  49   1    -0.00  -0.00  -0.01    -0.00   0.00   0.01     0.00  -0.00   0.01
  50   1    -0.00  -0.00  -0.00    -0.00   0.01   0.01    -0.00   0.00   0.02
  51   7    -0.01   0.00   0.01    -0.01   0.01  -0.01    -0.01   0.00   0.00
  52   1    -0.00   0.00  -0.01    -0.00   0.00   0.00    -0.00   0.00  -0.00
  53   1    -0.00   0.00  -0.01    -0.00   0.00   0.00    -0.00  -0.00  -0.00
                     31                     32                     33
                        a                      a                      a 
 Frequencies --   301.0174               310.2717               328.2999
 Red. masses --     4.4531                 8.1425                 2.6626
 Frc consts  --     0.0000                 0.0000                 0.0000
 IR Inten    --     2.5101                 3.3887               122.8673
 Raman Activ --     0.0000                 0.0000                 0.0000
 Depolar     --     0.0000                 0.0000                 0.0000
 Atom AN      X      Y      Z        X      Y      Z        X      Y      Z
   1   8    -0.03   0.01  -0.30     0.08   0.13   0.24     0.01   0.02   0.04
   2   6    -0.17  -0.10  -0.00     0.03  -0.24   0.16     0.04   0.01  -0.01
   3   1    -0.01  -0.12   0.01     0.04  -0.16   0.04     0.00   0.01  -0.01
   4   1    -0.14  -0.02   0.06    -0.09  -0.07   0.10     0.02   0.00  -0.01
   5   6     0.03   0.02  -0.04     0.09  -0.01  -0.03     0.01  -0.00  -0.01
   6   1     0.03   0.02   0.03     0.04   0.01   0.01     0.00  -0.01  -0.00
   7   1     0.02  -0.02  -0.05     0.04   0.04  -0.00     0.01   0.01  -0.00
   8   7     0.09   0.04   0.06    -0.04   0.00  -0.13    -0.04  -0.00  -0.02
   9   6    -0.01  -0.18   0.03     0.09   0.28  -0.16    -0.02   0.05  -0.01
  10   1     0.07   0.22   0.19     0.02   0.27   0.01    -0.00   0.04   0.01
  11   1     0.06  -0.08  -0.35     0.16   0.06  -0.19     0.02   0.01  -0.01
  12   1    -0.16  -0.34   0.17    -0.06  -0.01   0.02    -0.02   0.01   0.00
  13   6     0.09   0.10   0.04    -0.14  -0.44   0.05    -0.02  -0.03  -0.01
  14   1     0.05   0.01   0.03    -0.02  -0.26  -0.02    -0.01   0.01  -0.01
  15   1     0.04   0.06   0.00    -0.01  -0.10  -0.04    -0.02  -0.03  -0.00
  16   1    -0.01   0.03  -0.01    -0.13  -0.12   0.14     0.02  -0.01  -0.00
  17   6     0.08   0.20   0.14    -0.13   0.24  -0.13    -0.02  -0.04  -0.02
  18   1     0.16  -0.18   0.07    -0.07   0.11  -0.04    -0.00  -0.03  -0.00
  19   1    -0.18   0.10  -0.15    -0.07   0.07   0.02    -0.01  -0.01  -0.02
  20   1     0.08   0.27   0.21    -0.01   0.08  -0.09    -0.01  -0.01   0.01
  21   1    -0.05   0.03  -0.11    -0.00   0.06   0.05     0.01   0.00   0.02
  22   6     0.00  -0.01  -0.01     0.00   0.01  -0.01     0.00  -0.00   0.00
  23   8     0.00  -0.01  -0.00    -0.00   0.02  -0.02     0.00  -0.00   0.00
  24   7    -0.01  -0.00  -0.01     0.01  -0.01   0.01    -0.00   0.00  -0.00
  25   1    -0.00  -0.00   0.00     0.01   0.01  -0.00    -0.00  -0.00   0.00
  26   1    -0.00  -0.00   0.01     0.00   0.00  -0.01     0.00  -0.01   0.01
  27   7     0.00  -0.01  -0.01     0.01  -0.00   0.01     0.00  -0.00   0.00
  28   1     0.00   0.01  -0.01     0.00  -0.01   0.01     0.00   0.00  -0.00
  29   1     0.00   0.00  -0.00     0.00   0.00   0.00     0.00   0.00  -0.00
  30   6    -0.02   0.00   0.03     0.00   0.00  -0.01     0.00  -0.00  -0.00
  31   8    -0.04   0.00   0.07     0.01  -0.00  -0.02     0.00  -0.00  -0.00
  32   7    -0.01  -0.01   0.01     0.01   0.00  -0.01    -0.01  -0.00   0.00
  33   1     0.02  -0.00  -0.02    -0.01  -0.00   0.01     0.01   0.00  -0.01
  34   1     0.05   0.00  -0.07    -0.02  -0.00   0.02     0.01   0.00  -0.01
  35   7     0.01  -0.02  -0.01     0.00  -0.00   0.00    -0.00   0.00   0.00
  36   1    -0.02  -0.00   0.01    -0.00  -0.00   0.00     0.00   0.00  -0.00
  37   1    -0.01  -0.01   0.02     0.00  -0.00   0.00     0.00   0.00  -0.00
  38   6     0.00   0.00  -0.00     0.00  -0.00  -0.00     0.00   0.01  -0.01
  39   8     0.00   0.00  -0.00     0.01   0.00  -0.00    -0.00   0.01  -0.02
  40   7     0.00   0.00   0.00     0.00   0.01   0.00     0.00  -0.01  -0.02
  41   1    -0.00  -0.00   0.00    -0.00  -0.01   0.01    -0.01  -0.01   0.00
  42   1    -0.00  -0.01   0.00    -0.01  -0.02   0.01    -0.01  -0.01  -0.00
  43   7     0.00  -0.00   0.00     0.01   0.01  -0.01    -0.00  -0.01   0.01
  44   1    -0.00  -0.00   0.00    -0.00  -0.00  -0.00     0.02   0.02  -0.01
  45   1    -0.00  -0.00   0.00    -0.01  -0.01   0.00     0.01   0.01   0.00
  46   6    -0.00  -0.01  -0.01    -0.00  -0.00   0.01     0.02  -0.03  -0.01
  47   8    -0.01  -0.01  -0.01    -0.00  -0.00   0.01     0.02  -0.01   0.01
  48   7    -0.00   0.01   0.02    -0.01  -0.01  -0.01     0.01   0.11   0.31
  49   1    -0.00  -0.00  -0.02    -0.00   0.00   0.02    -0.02  -0.07  -0.35
  50   1    -0.00  -0.01  -0.02     0.00   0.01   0.03    -0.09  -0.23  -0.74
  51   7     0.01  -0.01   0.00     0.00  -0.01   0.01    -0.03  -0.00  -0.07
  52   1     0.01  -0.00   0.01    -0.01  -0.00  -0.02     0.10   0.01   0.33
  53   1     0.00  -0.00   0.00    -0.00  -0.00  -0.00     0.01  -0.00   0.07
                     34                     35                     36
                        a                      a                      a 
 Frequencies --   337.5708               357.3968               374.6831
 Red. masses --     4.3700                 4.3498                 5.6539
 Frc consts  --     0.0000                 0.0000                 0.0000
 IR Inten    --     0.7647                 1.6972                 5.5669
 Raman Activ --     0.0000                 0.0000                 0.0000
 Depolar     --     0.0000                 0.0000                 0.0000
 Atom AN      X      Y      Z        X      Y      Z        X      Y      Z
   1   8     0.06   0.07   0.21    -0.00  -0.04   0.04     0.02   0.08   0.16
   2   6     0.23   0.14  -0.12     0.07  -0.07  -0.12     0.11   0.23   0.03
   3   1     0.01   0.12  -0.06    -0.00  -0.04  -0.07     0.00   0.20   0.03
   4   1     0.15   0.04  -0.11     0.02  -0.02  -0.02     0.14   0.06  -0.10
   5   6     0.04  -0.04  -0.03     0.12  -0.04  -0.12    -0.31  -0.01   0.13
   6   1     0.00  -0.06  -0.04     0.05  -0.06  -0.03    -0.19   0.05  -0.08
   7   1     0.01   0.01   0.01     0.06   0.03  -0.04    -0.18  -0.05   0.16
   8   7    -0.11  -0.04   0.01    -0.04  -0.01  -0.02    -0.04  -0.07  -0.01
   9   6    -0.03   0.17   0.04    -0.01   0.26   0.24     0.03  -0.13  -0.24
  10   1     0.01   0.21   0.09     0.02   0.05   0.09    -0.04  -0.09  -0.14
  11   1     0.10   0.03  -0.12     0.04   0.08   0.16    -0.03  -0.03  -0.03
  12   1    -0.11  -0.04   0.08    -0.06   0.17   0.04     0.11  -0.02  -0.10
  13   6    -0.10  -0.04   0.00    -0.18   0.12  -0.04     0.25  -0.18  -0.03
  14   1    -0.18   0.26  -0.07     0.11  -0.27   0.05     0.20  -0.21   0.08
  15   1    -0.19  -0.26   0.12     0.12   0.36  -0.09     0.18   0.07  -0.15
  16   1     0.30  -0.03  -0.05    -0.46   0.06   0.00    -0.10  -0.04   0.05
  17   6    -0.10  -0.25  -0.08     0.06  -0.26   0.01    -0.08   0.06   0.00
  18   1     0.05  -0.31   0.02     0.10  -0.27   0.04     0.10  -0.16   0.02
  19   1    -0.14  -0.04  -0.26    -0.05  -0.05  -0.18    -0.22   0.05  -0.16
  20   1     0.00   0.09   0.13     0.02   0.03   0.15     0.03   0.22   0.13
  21   1     0.06  -0.02   0.09     0.01  -0.00   0.04     0.04  -0.03   0.04
  22   6     0.00  -0.01  -0.00    -0.00   0.01  -0.01     0.01   0.01   0.00
  23   8     0.00  -0.02   0.01    -0.00   0.02  -0.01     0.01   0.01  -0.00
  24   7    -0.00  -0.00  -0.00     0.01  -0.01   0.01     0.00  -0.00   0.01
  25   1    -0.00   0.00  -0.00     0.00   0.01  -0.01    -0.01  -0.00  -0.00
  26   1    -0.00   0.00   0.00     0.00   0.01  -0.01    -0.00   0.02  -0.01
  27   7     0.01  -0.01   0.01    -0.00  -0.00   0.01    -0.01  -0.00  -0.01
  28   1     0.00   0.03  -0.03    -0.00  -0.01   0.01    -0.00  -0.03   0.01
  29   1     0.01   0.01  -0.01    -0.00   0.00  -0.00    -0.01  -0.00   0.00
  30   6    -0.00  -0.00  -0.00     0.00  -0.00  -0.01     0.00  -0.01  -0.01
  31   8    -0.01  -0.00  -0.00     0.00  -0.00  -0.01     0.00  -0.00  -0.00
  32   7    -0.01  -0.00   0.00    -0.00  -0.00   0.00    -0.02   0.00   0.00
  33   1     0.01   0.00  -0.01     0.00  -0.00  -0.00     0.00   0.01  -0.01
  34   1     0.01   0.00  -0.01    -0.00   0.00   0.00     0.01   0.00  -0.02
  35   7    -0.00   0.01  -0.00    -0.00   0.01   0.00    -0.01   0.01   0.01
  36   1    -0.00   0.00   0.01     0.01   0.00  -0.01     0.02   0.00  -0.01
  37   1    -0.00   0.01   0.00     0.00   0.00  -0.00     0.00   0.01  -0.01
  38   6    -0.00   0.00   0.01     0.00  -0.00  -0.00    -0.00  -0.01   0.00
  39   8    -0.00  -0.00   0.01    -0.00   0.00  -0.00    -0.00   0.00   0.00
  40   7    -0.00  -0.01   0.00     0.00   0.01   0.00     0.01   0.01  -0.00
  41   1     0.01   0.01  -0.01    -0.00  -0.01   0.01    -0.00  -0.00  -0.00
  42   1     0.02   0.02  -0.01    -0.01  -0.02   0.01    -0.01  -0.02   0.01
  43   7    -0.01  -0.01   0.00     0.01   0.01  -0.00     0.01   0.02  -0.01
  44   1     0.00   0.00  -0.00    -0.01  -0.02   0.01    -0.02  -0.02   0.01
  45   1     0.01   0.01  -0.01    -0.02  -0.02   0.01    -0.01  -0.01   0.00
  46   6     0.00   0.00  -0.01    -0.01  -0.01   0.00    -0.01   0.00  -0.01
  47   8    -0.00   0.00  -0.02    -0.01  -0.01  -0.01    -0.00   0.00  -0.01
  48   7     0.00  -0.01  -0.03    -0.01   0.01  -0.01     0.00  -0.01   0.03
  49   1     0.00   0.01   0.04    -0.01   0.01   0.00     0.01  -0.01  -0.01
  50   1     0.01   0.03   0.09     0.01   0.01   0.02    -0.01  -0.01  -0.01
  51   7    -0.00   0.01   0.01    -0.00  -0.01  -0.00     0.03  -0.01   0.02
  52   1    -0.01  -0.00  -0.03     0.00  -0.00   0.01    -0.01  -0.00  -0.06
  53   1    -0.00   0.00  -0.01    -0.00  -0.00   0.00     0.01  -0.01  -0.01
                     37                     38                     39
                        a                      a                      a 
 Frequencies --   394.2237               407.4271               412.2637
 Red. masses --     3.2748                 3.2834                 3.2896
 Frc consts  --     0.0000                 0.0000                 0.0000
 IR Inten    --   127.8359               106.2624               181.5685
 Raman Activ --     0.0000                 0.0000                 0.0000
 Depolar     --     0.0000                 0.0000                 0.0000
 Atom AN      X      Y      Z        X      Y      Z        X      Y      Z
   1   8    -0.00  -0.01  -0.01    -0.00  -0.01   0.01     0.01   0.01   0.04
   2   6    -0.01   0.02   0.02    -0.00  -0.01  -0.00     0.02  -0.00   0.00
   3   1    -0.00   0.00   0.01    -0.00  -0.00  -0.00     0.00   0.01   0.00
   4   1     0.00   0.01   0.00     0.00  -0.00  -0.00     0.01  -0.00  -0.00
   5   6    -0.01   0.01   0.02     0.01  -0.00  -0.00    -0.03  -0.01  -0.00
   6   1     0.00   0.00   0.01     0.00  -0.00  -0.00    -0.02   0.00  -0.02
   7   1     0.00   0.00  -0.00     0.00  -0.00   0.00    -0.02  -0.01   0.01
   8   7    -0.01   0.01   0.00     0.01  -0.01  -0.00    -0.02  -0.00  -0.01
   9   6    -0.01  -0.01  -0.03     0.00   0.00   0.01    -0.02   0.01  -0.00
  10   1    -0.01  -0.00  -0.01     0.00   0.01   0.01    -0.01  -0.00  -0.01
  11   1    -0.00  -0.00  -0.01     0.01  -0.00  -0.01    -0.01   0.00   0.01
  12   1     0.01  -0.01  -0.01    -0.01  -0.00   0.01    -0.00   0.01  -0.00
  13   6     0.02  -0.02   0.00    -0.00  -0.00  -0.00     0.03  -0.02  -0.02
  14   1     0.01  -0.00   0.01     0.00  -0.01  -0.00     0.03  -0.02   0.01
  15   1     0.00  -0.02  -0.01     0.00   0.01  -0.00     0.03   0.02  -0.03
  16   1     0.01  -0.01   0.01    -0.01  -0.00  -0.00    -0.02  -0.00   0.00
  17   6    -0.01   0.00   0.00     0.01  -0.00   0.00     0.01   0.02   0.03
  18   1     0.00  -0.01   0.00     0.00   0.00   0.00     0.02  -0.00   0.01
  19   1    -0.01   0.00  -0.01     0.00  -0.00   0.00    -0.01   0.01   0.00
  20   1    -0.00   0.01   0.01     0.00   0.00   0.00     0.00   0.02   0.02
  21   1    -0.00   0.01   0.00    -0.01   0.03   0.02     0.01  -0.01   0.00
  22   6    -0.01   0.01  -0.01     0.02  -0.09   0.08     0.01  -0.03   0.03
  23   8    -0.01   0.01  -0.01     0.01  -0.03   0.06     0.01  -0.01   0.01
  24   7     0.00  -0.00  -0.00    -0.07   0.17  -0.16    -0.04   0.05  -0.04
  25   1     0.00  -0.00   0.00     0.01  -0.03   0.06    -0.01  -0.00   0.01
  26   1    -0.00   0.00  -0.01     0.06  -0.50   0.49     0.01  -0.15   0.16
  27   7     0.01   0.01   0.00     0.01   0.10  -0.12    -0.01   0.01  -0.04
  28   1     0.00  -0.02   0.03    -0.00  -0.05   0.03    -0.00   0.00  -0.03
  29   1     0.01   0.00  -0.00    -0.00  -0.05   0.05    -0.01  -0.02   0.02
  30   6     0.05  -0.01  -0.07     0.06  -0.02  -0.10    -0.05   0.01   0.05
  31   8     0.04  -0.01  -0.03     0.04  -0.01  -0.05    -0.03   0.01   0.02
  32   7    -0.07  -0.01   0.08    -0.09  -0.01   0.08     0.07   0.01  -0.08
  33   1     0.02   0.01  -0.02     0.03   0.01  -0.03    -0.02  -0.01   0.02
  34   1     0.05   0.00  -0.08     0.02   0.00  -0.06    -0.05  -0.00   0.10
  35   7    -0.09   0.03   0.11    -0.10   0.06   0.13     0.08  -0.02  -0.10
  36   1     0.23  -0.03  -0.30     0.30  -0.03  -0.37    -0.23   0.04   0.30
  37   1     0.04  -0.00  -0.05     0.03   0.01  -0.04    -0.03   0.01   0.02
  38   6    -0.05  -0.03  -0.00     0.01   0.02  -0.01     0.06   0.09  -0.05
  39   8    -0.03  -0.01  -0.01     0.00   0.00  -0.00     0.04   0.04  -0.02
  40   7     0.03   0.03  -0.04    -0.04  -0.02   0.02    -0.07  -0.12   0.02
  41   1    -0.05  -0.07   0.02     0.02   0.04  -0.01     0.01   0.02  -0.02
  42   1     0.08   0.09  -0.05    -0.01   0.01  -0.00     0.07   0.09  -0.05
  43   7     0.06   0.06   0.00    -0.04  -0.04   0.03    -0.13  -0.15   0.07
  44   1    -0.19  -0.27   0.13     0.13   0.16  -0.07     0.34   0.43  -0.19
  45   1    -0.04  -0.01   0.04     0.02   0.01  -0.01     0.05   0.03  -0.03
  46   6     0.05  -0.01   0.10    -0.01   0.01  -0.02     0.02  -0.00   0.05
  47   8     0.01  -0.04   0.09    -0.01   0.01  -0.02     0.00  -0.01   0.05
  48   7     0.01  -0.03  -0.18    -0.00   0.00   0.04     0.00  -0.04  -0.12
  49   1    -0.02   0.03   0.07     0.00  -0.01  -0.02    -0.00   0.01   0.06
  50   1     0.06   0.09   0.18    -0.01  -0.02  -0.02     0.04   0.06   0.15
  51   7    -0.11   0.03  -0.21     0.02  -0.00   0.05    -0.07   0.03  -0.14
  52   1     0.22   0.05   0.63    -0.05  -0.01  -0.15     0.17   0.05   0.44
  53   1     0.00  -0.02   0.07     0.00   0.01  -0.01    -0.00  -0.03   0.01
                     40                     41                     42
                        a                      a                      a 
 Frequencies --   428.8093               432.7405               460.7155
 Red. masses --     8.7454                 2.7424                 7.5541
 Frc consts  --     0.0000                 0.0000                 0.0000
 IR Inten    --     0.8366               559.6741                 4.5600
 Raman Activ --     0.0000                 0.0000                 0.0000
 Depolar     --     0.0000                 0.0000                 0.0000
 Atom AN      X      Y      Z        X      Y      Z        X      Y      Z
   1   8     0.07   0.10   0.20    -0.00  -0.00   0.01     0.00  -0.05  -0.08
   2   6     0.08  -0.12   0.04     0.01  -0.00  -0.01    -0.04   0.21   0.11
   3   1     0.03  -0.06   0.01    -0.00   0.00  -0.00    -0.01   0.00   0.01
   4   1    -0.01  -0.03   0.03     0.00  -0.00  -0.00    -0.01   0.07   0.10
   5   6    -0.12   0.05  -0.11     0.01   0.00  -0.01     0.09   0.33  -0.00
   6   1    -0.08   0.05  -0.08     0.01  -0.00  -0.00     0.07   0.07   0.06
   7   1    -0.08   0.03   0.05     0.01   0.01  -0.00     0.07   0.10  -0.06
   8   7    -0.11   0.04  -0.33    -0.02   0.00  -0.00     0.01   0.27  -0.03
   9   6    -0.36  -0.00   0.14    -0.02   0.01  -0.01    -0.16  -0.13  -0.06
  10   1    -0.00  -0.04   0.14    -0.01   0.00  -0.01    -0.01  -0.10  -0.00
  11   1    -0.15   0.00   0.06    -0.00   0.00  -0.00    -0.16  -0.03  -0.06
  12   1    -0.21   0.01   0.06    -0.00   0.00  -0.00    -0.01  -0.10   0.00
  13   6     0.08  -0.12  -0.32     0.02  -0.00  -0.01    -0.03  -0.24   0.17
  14   1     0.03   0.01  -0.06     0.01   0.00   0.01    -0.01  -0.17  -0.00
  15   1     0.01  -0.10  -0.12     0.01  -0.00  -0.01    -0.01  -0.11   0.00
  16   1     0.10  -0.04  -0.07     0.01  -0.00  -0.00    -0.02  -0.07   0.20
  17   6     0.32   0.06   0.24    -0.00  -0.01   0.02     0.12  -0.23  -0.13
  18   1     0.26   0.08   0.02     0.01  -0.00   0.01     0.01  -0.16  -0.01
  19   1     0.13   0.00   0.16     0.00  -0.00   0.01     0.13  -0.07  -0.15
  20   1     0.01  -0.05   0.19    -0.01  -0.01   0.01    -0.01  -0.12   0.01
  21   1     0.02   0.03   0.06     0.00  -0.00   0.00    -0.00  -0.01  -0.03
  22   6    -0.00  -0.00   0.00     0.02  -0.05   0.04    -0.04   0.00  -0.00
  23   8    -0.00   0.00   0.00     0.01  -0.01   0.04    -0.04   0.01   0.00
  24   7     0.01  -0.01   0.00    -0.03   0.10  -0.11     0.04  -0.02  -0.04
  25   1     0.00  -0.00   0.00     0.02   0.01   0.01     0.04   0.00   0.00
  26   1    -0.00   0.02  -0.03     0.05  -0.37   0.35     0.02  -0.05  -0.00
  27   7     0.00  -0.00   0.01     0.01   0.07  -0.09     0.03   0.03   0.02
  28   1     0.00   0.01  -0.00    -0.00  -0.07   0.05     0.00   0.01   0.04
  29   1     0.01   0.00  -0.00    -0.00  -0.05   0.05     0.04   0.00  -0.01
  30   6     0.01  -0.01  -0.01    -0.05   0.01   0.06    -0.01   0.01   0.00
  31   8     0.01  -0.01  -0.01    -0.03   0.00   0.02    -0.01   0.02   0.01
  32   7    -0.01   0.00   0.00     0.08   0.01  -0.10     0.02  -0.01   0.00
  33   1     0.01   0.00  -0.01    -0.03  -0.01   0.03    -0.01  -0.01   0.01
  34   1    -0.00  -0.00  -0.00    -0.08  -0.01   0.12     0.01  -0.00   0.01
  35   7    -0.00   0.01   0.01     0.10  -0.01  -0.12    -0.00  -0.01  -0.02
  36   1     0.02  -0.00  -0.02    -0.28   0.05   0.38    -0.03   0.00   0.02
  37   1    -0.00   0.00  -0.00    -0.02   0.02   0.00    -0.00  -0.01  -0.00
  38   6    -0.00  -0.00   0.01    -0.03  -0.05   0.02    -0.00  -0.03   0.02
  39   8    -0.01  -0.00   0.01    -0.03  -0.01   0.00    -0.03  -0.02   0.01
  40   7     0.01   0.00  -0.00     0.06   0.09  -0.03     0.01  -0.02   0.01
  41   1    -0.00  -0.01   0.00    -0.08  -0.12   0.05     0.13   0.19  -0.06
  42   1     0.01   0.00  -0.00     0.01   0.01  -0.00    -0.11  -0.15   0.06
  43   7     0.00   0.00  -0.00     0.09   0.09  -0.07     0.03   0.03  -0.04
  44   1    -0.02  -0.02   0.01    -0.32  -0.42   0.18     0.01   0.04  -0.03
  45   1     0.00   0.00  -0.00     0.00   0.03   0.01    -0.03  -0.06  -0.01
  46   6     0.01  -0.01  -0.01     0.00  -0.01   0.01     0.05  -0.09   0.02
  47   8     0.01  -0.01  -0.01     0.00  -0.01   0.00     0.11  -0.06  -0.00
  48   7     0.01   0.01  -0.00    -0.00   0.01  -0.00     0.02   0.12  -0.04
  49   1    -0.01   0.01  -0.00    -0.01   0.00  -0.00    -0.10   0.08  -0.06
  50   1     0.01   0.01   0.01     0.00   0.00  -0.01     0.10   0.11   0.01
  51   7    -0.01   0.01   0.01    -0.01  -0.00   0.00    -0.15  -0.01   0.03
  52   1    -0.02  -0.01  -0.02     0.00  -0.00   0.02    -0.08  -0.03   0.04
  53   1    -0.01   0.01  -0.00    -0.00   0.01   0.00    -0.05   0.06  -0.01
                     43                     44                     45
                        a                      a                      a 
 Frequencies --   463.6471               466.4397               468.1871
 Red. masses --     7.2794                 3.2981                 6.2209
 Frc consts  --     0.0000                 0.0000                 0.0000
 IR Inten    --     6.2251                15.8982                11.1351
 Raman Activ --     0.0000                 0.0000                 0.0000
 Depolar     --     0.0000                 0.0000                 0.0000
 Atom AN      X      Y      Z        X      Y      Z        X      Y      Z
   1   8     0.00  -0.00   0.00    -0.00   0.02   0.03     0.00   0.02  -0.01
   2   6     0.01  -0.09  -0.06     0.02  -0.06  -0.03     0.00  -0.04  -0.02
   3   1    -0.00  -0.03  -0.02     0.00   0.02   0.00     0.00  -0.01  -0.00
   4   1    -0.01  -0.03  -0.02     0.01  -0.02  -0.04    -0.00  -0.01  -0.02
   5   6     0.09  -0.11  -0.02    -0.08  -0.12   0.01     0.02  -0.06   0.00
   6   1     0.08  -0.10   0.04    -0.06   0.00  -0.04     0.02  -0.03   0.01
   7   1     0.08   0.02  -0.07    -0.06  -0.06   0.05     0.02  -0.00  -0.02
   8   7    -0.21  -0.06   0.08     0.06  -0.11  -0.02    -0.06  -0.04   0.03
   9   6    -0.04   0.13  -0.15     0.09   0.01   0.07     0.01   0.05  -0.05
  10   1    -0.07   0.08  -0.09     0.03   0.02   0.03    -0.02   0.03  -0.04
  11   1     0.06   0.03  -0.04     0.06   0.00   0.04     0.03   0.01  -0.01
  12   1     0.03   0.05  -0.06    -0.01   0.03   0.02     0.02   0.03  -0.02
  13   6     0.20   0.10  -0.04    -0.05   0.08  -0.07     0.07   0.05  -0.02
  14   1     0.11   0.08   0.08    -0.03   0.06  -0.03     0.04   0.03   0.03
  15   1     0.08   0.02  -0.08    -0.03   0.04   0.03     0.03   0.02  -0.03
  16   1     0.09   0.03  -0.07    -0.00   0.02  -0.08     0.02   0.01  -0.03
  17   6    -0.15  -0.00   0.22    -0.01   0.11  -0.01    -0.06   0.02   0.07
  18   1    -0.01   0.04   0.05     0.00   0.06  -0.01    -0.01   0.02   0.01
  19   1    -0.04  -0.00   0.10    -0.05   0.04   0.03    -0.03   0.01   0.04
  20   1    -0.05  -0.01   0.06     0.02   0.06  -0.02    -0.01   0.01   0.01
  21   1    -0.00   0.03   0.02     0.00  -0.01  -0.00     0.00  -0.02  -0.02
  22   6     0.12   0.02   0.02    -0.07  -0.01  -0.02    -0.13  -0.02  -0.03
  23   8     0.14  -0.05  -0.03    -0.08   0.03   0.03    -0.15   0.05   0.04
  24   7    -0.09   0.10   0.11     0.06  -0.06  -0.08     0.08  -0.12  -0.10
  25   1    -0.09   0.01  -0.01     0.06   0.00  -0.00     0.09  -0.00  -0.00
  26   1    -0.03   0.09   0.07     0.03  -0.10  -0.01     0.03  -0.08  -0.09
  27   7    -0.10  -0.08  -0.08     0.06   0.06   0.04     0.09   0.08   0.09
  28   1    -0.02  -0.14  -0.08     0.01   0.08   0.05     0.03   0.19   0.06
  29   1    -0.14   0.05  -0.02     0.09  -0.06   0.04     0.16  -0.11   0.08
  30   6    -0.02   0.08  -0.03     0.01  -0.04   0.02     0.06  -0.13   0.04
  31   8     0.02   0.09   0.00    -0.02  -0.05  -0.01    -0.04  -0.18  -0.04
  32   7     0.06  -0.05   0.06    -0.02   0.03  -0.04    -0.10   0.09  -0.10
  33   1     0.07  -0.11  -0.08    -0.05   0.06   0.06    -0.16   0.20   0.19
  34   1     0.04   0.00   0.13    -0.02  -0.00  -0.07    -0.06  -0.00  -0.26
  35   7    -0.07  -0.08  -0.05     0.04   0.04   0.02     0.11   0.13   0.12
  36   1    -0.04  -0.04  -0.06    -0.00   0.02   0.06     0.08   0.05   0.09
  37   1    -0.00  -0.06   0.02     0.00   0.03  -0.01     0.01   0.09  -0.03
  38   6    -0.00  -0.02   0.03    -0.05  -0.06   0.06     0.00   0.05   0.08
  39   8    -0.03  -0.00   0.02    -0.07  -0.06   0.06     0.04   0.03   0.10
  40   7     0.02  -0.02   0.01     0.04  -0.04  -0.02     0.09  -0.08  -0.05
  41   1     0.12   0.16  -0.06     0.33   0.48  -0.20    -0.09  -0.15  -0.05
  42   1    -0.09  -0.13   0.06    -0.26  -0.40   0.16     0.17   0.03  -0.03
  43   7     0.02   0.03  -0.05     0.06   0.13  -0.08    -0.11  -0.01  -0.09
  44   1    -0.02   0.01  -0.02    -0.06   0.00  -0.01    -0.05   0.07  -0.06
  45   1    -0.01  -0.03  -0.02    -0.05  -0.08  -0.02     0.01  -0.01  -0.07
  46   6     0.06  -0.13   0.03     0.01   0.02  -0.01     0.04  -0.11   0.04
  47   8     0.16  -0.07   0.00    -0.02  -0.01   0.01     0.15  -0.05   0.00
  48   7     0.03   0.16  -0.03     0.01  -0.01  -0.05     0.02   0.12   0.01
  49   1    -0.17   0.09  -0.17     0.06   0.01   0.15    -0.18   0.06  -0.28
  50   1     0.15   0.17   0.04    -0.03  -0.03  -0.03     0.14   0.16   0.07
  51   7    -0.20  -0.03   0.03     0.01   0.02  -0.03    -0.16  -0.04   0.02
  52   1    -0.12  -0.05   0.02     0.07   0.02   0.14    -0.12  -0.05  -0.04
  53   1    -0.06   0.07   0.01    -0.00  -0.02  -0.04    -0.05   0.07   0.04
                     46                     47                     48
                        a                      a                      a 
 Frequencies --   474.8250               476.3563               477.6726
 Red. masses --     4.4938                 4.2079                 5.4985
 Frc consts  --     0.0000                 0.0000                 0.0000
 IR Inten    --    16.9950                22.1232                 0.9875
 Raman Activ --     0.0000                 0.0000                 0.0000
 Depolar     --     0.0000                 0.0000                 0.0000
 Atom AN      X      Y      Z        X      Y      Z        X      Y      Z
   1   8     0.01   0.00  -0.02    -0.01   0.01   0.02     0.00   0.01  -0.01
   2   6    -0.00  -0.01  -0.01     0.00   0.01   0.02     0.00   0.00  -0.00
   3   1     0.00  -0.03  -0.01     0.00   0.03   0.02     0.00  -0.00   0.00
   4   1    -0.02   0.00   0.02     0.01   0.00  -0.02    -0.00   0.00   0.00
   5   6     0.08   0.04  -0.02    -0.13  -0.02   0.02    -0.02   0.01  -0.00
   6   1     0.07  -0.03   0.04    -0.11   0.07  -0.07    -0.02   0.01  -0.02
   7   1     0.07   0.04  -0.06    -0.11  -0.06   0.09    -0.02  -0.01   0.02
   8   7    -0.10   0.05   0.03     0.19  -0.04  -0.06     0.04   0.00  -0.00
   9   6    -0.07   0.04  -0.08     0.10  -0.07   0.16     0.02  -0.02   0.02
  10   1    -0.04   0.02  -0.04     0.07  -0.04   0.09     0.01  -0.01   0.01
  11   1    -0.02   0.01  -0.04     0.01  -0.02   0.06    -0.00  -0.01   0.00
  12   1     0.01  -0.00  -0.02    -0.03  -0.01   0.05    -0.00  -0.01   0.01
  13   6     0.09  -0.01   0.03    -0.19   0.00  -0.02    -0.04   0.00   0.01
  14   1     0.05  -0.00   0.04    -0.11  -0.00  -0.08    -0.02  -0.01  -0.01
  15   1     0.04  -0.02  -0.04    -0.09   0.01   0.09    -0.01   0.01   0.02
  16   1     0.04  -0.00   0.02    -0.07   0.00  -0.01    -0.02   0.00   0.01
  17   6    -0.03  -0.07   0.08     0.09   0.09  -0.16     0.01   0.01  -0.04
  18   1     0.00  -0.03   0.02    -0.00   0.03  -0.04    -0.01  -0.00  -0.01
  19   1     0.03  -0.02   0.02    -0.02   0.03  -0.04    -0.00   0.01  -0.02
  20   1    -0.03  -0.04   0.04     0.05   0.06  -0.07     0.01   0.01  -0.02
  21   1     0.00  -0.01  -0.02     0.00  -0.02  -0.01     0.00   0.01   0.00
  22   6     0.08   0.01   0.06     0.07  -0.00   0.06     0.02  -0.01   0.04
  23   8     0.10  -0.09  -0.03     0.08  -0.09  -0.01     0.03  -0.05   0.01
  24   7    -0.07   0.14   0.05    -0.03   0.13   0.02     0.00   0.06  -0.00
  25   1    -0.06  -0.02   0.03    -0.04  -0.02   0.04    -0.01  -0.02   0.03
  26   1    -0.02   0.08   0.04    -0.01   0.05   0.03    -0.00   0.03  -0.01
  27   7    -0.07  -0.05  -0.02    -0.05  -0.04  -0.01    -0.02  -0.01   0.01
  28   1    -0.03  -0.29   0.07    -0.03  -0.28   0.09    -0.01  -0.13   0.05
  29   1    -0.15   0.28  -0.23    -0.13   0.29  -0.25    -0.05   0.14  -0.12
  30   6     0.10  -0.12   0.02     0.02  -0.04   0.01    -0.01  -0.08   0.04
  31   8    -0.03  -0.17  -0.09    -0.00  -0.05  -0.01    -0.01  -0.09   0.05
  32   7    -0.06   0.09  -0.10    -0.04   0.03  -0.03    -0.13   0.05  -0.05
  33   1    -0.25   0.22   0.30     0.02   0.04  -0.03     0.25   0.02  -0.31
  34   1    -0.03  -0.00  -0.31    -0.06  -0.00  -0.00    -0.19  -0.01   0.17
  35   7     0.10   0.10   0.15     0.05   0.04   0.02     0.10   0.08  -0.02
  36   1     0.05   0.05   0.12     0.02   0.02   0.05     0.10   0.03   0.00
[...]
  44   1     0.00   0.01   0.02     0.01   0.05   0.13     0.00  -0.00  -0.00
  45   1    -0.11   0.06  -0.12    -0.56   0.31  -0.60     0.01  -0.00   0.01
  46   6     0.00   0.00   0.00    -0.00  -0.00  -0.00    -0.00   0.00  -0.00
  47   8     0.00  -0.00  -0.00    -0.00   0.00   0.00     0.00  -0.00   0.00
  48   7    -0.00  -0.00   0.00     0.00   0.00  -0.00     0.00  -0.00  -0.00
  49   1    -0.00  -0.00   0.00     0.00   0.00  -0.00     0.00   0.00  -0.00
  50   1    -0.00   0.00  -0.00     0.00  -0.00  -0.00     0.00  -0.00   0.00
  51   7     0.05   0.01  -0.01    -0.04  -0.01   0.01     0.00   0.00  -0.00
  52   1     0.02  -0.03  -0.00    -0.02   0.03   0.00     0.00  -0.00  -0.00
  53   1    -0.22  -0.02   0.04     0.18   0.01  -0.04    -0.01  -0.00   0.00
                    142                    143                    144
                        a                      a                      a 
 Frequencies --  3493.9156              3496.3329              3500.8664
 Red. masses --     1.4540                 1.4510                 1.4500
 Frc consts  --     0.0000                 0.0000                 0.0000
 IR Inten    --    17.5799                20.3637                18.3076
 Raman Activ --     0.0000                 0.0000                 0.0000
 Depolar     --     0.0000                 0.0000                 0.0000
 Atom AN      X      Y      Z        X      Y      Z        X      Y      Z
   1   8     0.00   0.00  -0.00     0.00   0.00  -0.00    -0.00  -0.00   0.00
   2   6    -0.00   0.00  -0.00     0.00  -0.00   0.00     0.00  -0.00  -0.00
   3   1    -0.00   0.00   0.00     0.00   0.00  -0.00    -0.00   0.00   0.00
   4   1    -0.00  -0.00   0.00    -0.00   0.00   0.00    -0.00   0.00  -0.00
   5   6     0.00  -0.00   0.00     0.00  -0.00  -0.00    -0.00  -0.00   0.00
   6   1     0.00  -0.00   0.00    -0.00  -0.00   0.00     0.00   0.00  -0.00
   7   1    -0.00   0.00  -0.00    -0.00   0.00  -0.00     0.00  -0.00   0.00
   8   7    -0.00   0.00   0.00    -0.00   0.00  -0.00     0.00  -0.00  -0.00
   9   6     0.00   0.00  -0.00     0.00  -0.00   0.00    -0.00  -0.00   0.00
  10   1    -0.00  -0.00   0.00    -0.00  -0.00   0.00     0.00   0.00  -0.00
  11   1     0.00  -0.00   0.00     0.00   0.00  -0.00    -0.00  -0.00   0.00
  12   1     0.00   0.00  -0.00     0.00  -0.00  -0.00    -0.00  -0.00  -0.00
  13   6     0.00  -0.00   0.00     0.00  -0.00  -0.00    -0.00  -0.00   0.00
  14   1    -0.00  -0.00   0.00    -0.00  -0.00   0.00     0.00   0.00  -0.00
  15   1    -0.00   0.00  -0.00    -0.00   0.00  -0.00    -0.00   0.00   0.00
  16   1     0.00  -0.00   0.00     0.00   0.00   0.00    -0.00  -0.00   0.00
  17   6     0.00  -0.00   0.00     0.00  -0.00   0.00    -0.00   0.00  -0.00
  18   1     0.00   0.00   0.00     0.00  -0.00   0.00    -0.00  -0.00  -0.00
  19   1     0.00  -0.00  -0.00     0.00   0.00   0.00    -0.00  -0.00   0.00
  20   1    -0.00   0.00  -0.00    -0.00   0.00  -0.00     0.00  -0.00   0.00
  21   1    -0.00  -0.00   0.00    -0.01  -0.01   0.01     0.00   0.00  -0.00
  22   6    -0.00   0.00   0.00     0.00  -0.00  -0.00     0.00  -0.00  -0.00
  23   8     0.00  -0.00  -0.00    -0.00   0.00   0.00    -0.00  -0.00  -0.00
  24   7     0.00  -0.00  -0.00     0.00   0.00   0.00    -0.01   0.00   0.01
  25   1    -0.00   0.00   0.00     0.01  -0.01  -0.01     0.01  -0.01  -0.01
  26   1    -0.00  -0.00  -0.00    -0.01  -0.00   0.00     0.04   0.01  -0.00
  27   7     0.00  -0.00  -0.00    -0.00  -0.00  -0.00     0.11  -0.11  -0.09
  28   1    -0.00   0.00  -0.00    -0.00  -0.00  -0.00    -0.72  -0.01  -0.06
  29   1     0.00   0.00   0.00     0.00   0.00   0.00     0.30   0.43   0.40
  30   6    -0.00  -0.00  -0.00     0.00  -0.00  -0.00     0.00  -0.00  -0.00
  31   8     0.00   0.00  -0.00    -0.00   0.00  -0.00    -0.00   0.00   0.00
  32   7    -0.00  -0.00  -0.00    -0.09  -0.13  -0.10     0.00   0.00   0.00
  33   1     0.00  -0.00   0.00     0.48  -0.20   0.44    -0.00   0.00  -0.00
  34   1    -0.00   0.00  -0.00    -0.16   0.68  -0.07     0.00  -0.00   0.00
  35   7     0.00   0.00   0.00     0.00   0.01   0.00    -0.00   0.00  -0.00
  36   1    -0.00   0.00  -0.00     0.00  -0.04   0.01     0.00  -0.00   0.00
  37   1    -0.00  -0.00  -0.00    -0.01  -0.01  -0.01     0.00   0.00   0.00
  38   6    -0.00   0.00   0.00    -0.00  -0.00  -0.00     0.00   0.00   0.00
  39   8     0.00   0.00  -0.00     0.00   0.00   0.00    -0.00  -0.00  -0.00
  40   7    -0.00   0.00  -0.00    -0.00   0.00  -0.00    -0.00  -0.00  -0.00
  41   1     0.00  -0.00  -0.00     0.00  -0.00  -0.00     0.00  -0.00  -0.00
  42   1    -0.00   0.00   0.00    -0.00   0.00   0.00    -0.00   0.00   0.00
  43   7     0.00  -0.00   0.00     0.00  -0.00   0.00    -0.00   0.00   0.00
  44   1    -0.00   0.00   0.00    -0.00  -0.00   0.00     0.00  -0.01  -0.02
  45   1    -0.00   0.00  -0.00    -0.00  -0.00  -0.00     0.01  -0.00   0.01
  46   6    -0.00   0.00  -0.00    -0.00  -0.00   0.00     0.00  -0.00   0.00
  47   8     0.00  -0.00   0.00     0.00   0.00   0.00    -0.00   0.00  -0.00
  48   7    -0.18  -0.01   0.00     0.00  -0.00   0.00     0.00   0.00  -0.00
  49   1     0.26   0.59  -0.13    -0.00  -0.00   0.00    -0.00  -0.00   0.00
  50   1     0.43  -0.57   0.12    -0.00   0.00  -0.00    -0.00   0.00  -0.00
  51   7     0.01  -0.01  -0.00     0.00   0.00   0.00    -0.00  -0.00   0.00
  52   1    -0.02   0.03   0.01     0.00  -0.00  -0.00    -0.00   0.00   0.00
  53   1    -0.01  -0.00   0.00    -0.00  -0.00   0.00     0.00   0.00  -0.00
                    145                    146                    147
                        a                      a                      a 
 Frequencies --  3504.5476              3526.3394              3533.8109
 Red. masses --     1.4490                 1.9194                 1.9175
 Frc consts  --     0.0000                 0.0000                 0.0000
 IR Inten    --    21.5480                13.3139                16.1345
 Raman Activ --     0.0000                 0.0000                 0.0000
 Depolar     --     0.0000                 0.0000                 0.0000
 Atom AN      X      Y      Z        X      Y      Z        X      Y      Z
   1   8    -0.00  -0.00   0.00     0.00   0.00  -0.00    -0.00   0.00  -0.00
   2   6     0.00  -0.00  -0.00    -0.00  -0.00   0.00     0.00  -0.00   0.00
   3   1    -0.00  -0.00   0.00     0.00   0.00  -0.00    -0.00  -0.00  -0.00
   4   1     0.00   0.00  -0.00     0.00  -0.00   0.00    -0.00   0.00   0.00
   5   6     0.00  -0.00   0.00     0.00  -0.00   0.00    -0.00  -0.00   0.00
   6   1    -0.00   0.00  -0.00    -0.00  -0.00   0.00     0.00  -0.00  -0.00
   7   1     0.00   0.00  -0.00    -0.00   0.00  -0.00    -0.00   0.00  -0.00
   8   7     0.00   0.00  -0.00     0.00  -0.00   0.00    -0.00   0.00   0.00
   9   6    -0.00   0.00   0.00    -0.00   0.00  -0.00    -0.00  -0.00   0.00
  10   1    -0.00   0.00   0.00    -0.00  -0.00   0.00     0.00   0.00  -0.00
  11   1     0.00  -0.00   0.00     0.00  -0.00   0.00    -0.00   0.00  -0.00
  12   1     0.00  -0.00  -0.00     0.00  -0.00   0.00    -0.00  -0.00  -0.00
  13   6     0.00   0.00   0.00     0.00   0.00  -0.00    -0.00  -0.00   0.00
  14   1    -0.00   0.00  -0.00    -0.00  -0.00   0.00     0.00   0.00  -0.00
  15   1     0.00   0.00  -0.00    -0.00   0.00   0.00    -0.00  -0.00  -0.00
  16   1     0.00  -0.00   0.00     0.00   0.00   0.00     0.00   0.00   0.00
  17   6    -0.00   0.00  -0.00     0.00  -0.00   0.00    -0.00   0.00   0.00
  18   1    -0.00   0.00   0.00     0.00  -0.00  -0.00    -0.00  -0.00   0.00
  19   1    -0.00  -0.00   0.00     0.00   0.00   0.00     0.00   0.00   0.00
  20   1     0.00  -0.00   0.00     0.00   0.00  -0.00     0.00  -0.00   0.00
  21   1     0.00   0.00  -0.00    -0.00  -0.00   0.00    -0.00  -0.00   0.00
  22   6    -0.00   0.00  -0.00     0.00  -0.00   0.00    -0.00  -0.00   0.00
  23   8     0.00  -0.00   0.00    -0.00   0.00  -0.00     0.00  -0.00   0.00
  24   7     0.00  -0.00  -0.00     0.00   0.00  -0.00    -0.01   0.00   0.00
  25   1    -0.00   0.00   0.00     0.00   0.00   0.00     0.00  -0.01  -0.01
  26   1    -0.00  -0.00  -0.00    -0.00  -0.00   0.00     0.03   0.00  -0.00
  27   7    -0.00   0.00   0.00    -0.00   0.00   0.00     0.01   0.00   0.00
  28   1     0.00   0.00   0.00     0.00  -0.00   0.00    -0.02   0.00  -0.00
  29   1    -0.00  -0.00  -0.00    -0.00  -0.00  -0.00    -0.00  -0.00  -0.00
  30   6    -0.00  -0.00  -0.00     0.00   0.00   0.00    -0.00  -0.00  -0.00
  31   8     0.00   0.00   0.00    -0.00  -0.00  -0.00    -0.00   0.00   0.00
  32   7     0.00   0.00   0.00     0.00  -0.00   0.00    -0.00   0.00  -0.00
  33   1    -0.00   0.00  -0.00    -0.00   0.00  -0.00     0.01  -0.00   0.01
  34   1     0.00  -0.00   0.00    -0.00   0.00  -0.00     0.00  -0.00   0.00
  35   7     0.00  -0.00   0.00    -0.00   0.01  -0.00     0.00  -0.03   0.01
  36   1    -0.00   0.01  -0.00     0.00  -0.03   0.01    -0.02   0.12  -0.03
  37   1    -0.01  -0.01  -0.01     0.00   0.00   0.00     0.01   0.01   0.01
  38   6    -0.00  -0.00  -0.00    -0.00  -0.00  -0.00    -0.00  -0.00  -0.01
  39   8    -0.00   0.00   0.00    -0.00   0.00   0.00     0.00   0.00   0.00
  40   7    -0.13   0.03  -0.13    -0.00  -0.00  -0.00    -0.02   0.01   0.01
  41   1     0.51  -0.40  -0.17     0.00  -0.00  -0.00     0.07  -0.05  -0.02
  42   1    -0.03   0.30   0.65    -0.00   0.01   0.01    -0.00  -0.00  -0.01
  43   7     0.01   0.00   0.02    -0.00   0.00   0.00    -0.02  -0.09  -0.24
  44   1     0.00  -0.02  -0.05     0.00  -0.01  -0.02    -0.01   0.39   0.86
  45   1    -0.01   0.01  -0.01     0.00  -0.00   0.00     0.08  -0.05   0.06
  46   6     0.00  -0.00   0.00     0.01  -0.00  -0.00     0.00  -0.00  -0.00
  47   8    -0.00   0.00   0.00    -0.00   0.00   0.00    -0.00   0.00   0.00
  48   7     0.00   0.00  -0.00     0.01   0.03  -0.01     0.00   0.00  -0.00
  49   1    -0.00  -0.00   0.00    -0.04  -0.07   0.02    -0.00  -0.00   0.00
  50   1    -0.00   0.00  -0.00     0.02  -0.02   0.01     0.00  -0.00   0.00
  51   7    -0.01   0.00   0.00     0.16  -0.21  -0.04     0.00  -0.00  -0.00
  52   1     0.00  -0.01  -0.00    -0.50   0.80   0.13    -0.01   0.02   0.00
  53   1     0.02   0.00  -0.00    -0.11  -0.03   0.02    -0.01  -0.00   0.00
                    148                    149                    150
                        a                      a                      a 
 Frequencies --  3533.8968              3534.4037              3557.7315
 Red. masses --     1.9146                 1.9208                 2.1743
 Frc consts  --     0.0000                 0.0000                 0.0000
 IR Inten    --    14.3656                13.8892                10.2822
 Raman Activ --     0.0000                 0.0000                 0.0000
 Depolar     --     0.0000                 0.0000                 0.0000
 Atom AN      X      Y      Z        X      Y      Z        X      Y      Z
   1   8     0.00   0.00  -0.00    -0.00  -0.00   0.00     0.00   0.00  -0.00
   2   6     0.00   0.00  -0.00    -0.00   0.00   0.00    -0.00  -0.00   0.00
   3   1    -0.00  -0.00   0.00     0.00   0.00  -0.00     0.00   0.00  -0.00
   4   1     0.00  -0.00  -0.00     0.00   0.00  -0.00     0.00  -0.00   0.00
   5   6    -0.00   0.00  -0.00     0.00   0.00   0.00     0.00  -0.00   0.00
   6   1    -0.00   0.00   0.00    -0.00   0.00   0.00     0.00  -0.00   0.00
   7   1     0.00  -0.00   0.00     0.00   0.00  -0.00    -0.00  -0.00  -0.00
   8   7    -0.00  -0.00   0.00    -0.00  -0.00  -0.00    -0.00   0.00  -0.00
   9   6     0.00   0.00  -0.00    -0.00  -0.00  -0.00     0.00   0.00   0.00
  10   1    -0.00  -0.00   0.00    -0.00  -0.00   0.00     0.00  -0.00   0.00
  11   1    -0.00  -0.00  -0.00     0.00   0.00  -0.00     0.00  -0.00  -0.00
  12   1     0.00   0.00  -0.00     0.00   0.00   0.00    -0.00  -0.00  -0.00
  13   6     0.00   0.00  -0.00    -0.00  -0.00   0.00     0.00  -0.00   0.00
  14   1    -0.00  -0.00   0.00     0.00   0.00  -0.00     0.00  -0.00   0.00
  15   1    -0.00  -0.00   0.00    -0.00   0.00  -0.00    -0.00   0.00   0.00
  16   1    -0.00  -0.00  -0.00     0.00  -0.00  -0.00     0.00   0.00   0.00
  17   6    -0.00   0.00   0.00    -0.00  -0.00   0.00     0.00  -0.00   0.00
  18   1     0.00   0.00  -0.00    -0.00   0.00  -0.00     0.00  -0.00  -0.00
  19   1    -0.00  -0.00   0.00     0.00   0.00  -0.00     0.00  -0.00   0.00
  20   1     0.00  -0.00   0.00    -0.00   0.00  -0.00    -0.00   0.00  -0.00
  21   1    -0.00  -0.00   0.00     0.01   0.00  -0.00    -0.00  -0.00   0.00
  22   6     0.00  -0.00  -0.00     0.01  -0.00  -0.01    -0.00   0.00   0.00
  23   8    -0.00   0.00   0.00    -0.00   0.00   0.00     0.00   0.00  -0.00
  24   7     0.04   0.00  -0.00     0.26   0.01  -0.02    -0.00   0.00   0.00
  25   1    -0.01   0.01   0.01    -0.04   0.08   0.07     0.00  -0.00  -0.00
  26   1    -0.15  -0.02   0.00    -0.93  -0.11   0.03     0.00   0.00   0.00
  27   7    -0.00  -0.00  -0.00    -0.01  -0.02  -0.01     0.00   0.00   0.00
  28   1     0.01  -0.00   0.00     0.02  -0.00   0.00    -0.00   0.00  -0.00
  29   1     0.01   0.01   0.01     0.04   0.06   0.05    -0.00  -0.00  -0.00
  30   6    -0.00  -0.01  -0.00     0.00  -0.00   0.00    -0.00   0.00  -0.00
  31   8     0.00   0.00  -0.00    -0.00   0.00  -0.00     0.00   0.00  -0.00
  32   7    -0.02   0.02  -0.02     0.00   0.00   0.00    -0.00   0.00  -0.00
  33   1     0.07  -0.02   0.06    -0.01   0.00  -0.01     0.00  -0.00   0.00
  34   1     0.01  -0.04   0.00     0.00  -0.01   0.00     0.00  -0.00   0.00
  35   7     0.01  -0.25   0.04    -0.00   0.04  -0.01    -0.00  -0.00  -0.00
  36   1    -0.11   0.90  -0.20     0.02  -0.15   0.03    -0.00   0.00  -0.00
  37   1     0.07   0.05   0.06    -0.01  -0.01  -0.01     0.00   0.00   0.00
  38   6     0.00  -0.00  -0.00    -0.00   0.00  -0.00     0.00  -0.00  -0.00
  39   8    -0.00   0.00   0.00    -0.00  -0.00  -0.00    -0.00   0.00   0.00
  40   7     0.00  -0.00   0.00    -0.00   0.00  -0.00     0.00  -0.00  -0.00
  41   1    -0.01   0.01   0.00     0.00  -0.00  -0.00    -0.00   0.00  -0.00
  42   1     0.00  -0.00  -0.01    -0.00   0.00   0.00    -0.00   0.00   0.00
  43   7     0.00   0.01   0.03    -0.00  -0.01  -0.01    -0.00  -0.00  -0.00
  44   1     0.00  -0.05  -0.11    -0.00   0.02   0.05    -0.00   0.00   0.00
  45   1    -0.01   0.01  -0.00     0.00  -0.00   0.00     0.00  -0.00   0.00
  46   6     0.00  -0.00  -0.00    -0.00   0.00   0.00     0.00  -0.01   0.00
  47   8    -0.00   0.00  -0.00     0.00  -0.00  -0.00    -0.00   0.00  -0.00
  48   7     0.00   0.00  -0.00    -0.00  -0.00   0.00     0.03  -0.29   0.06
  49   1    -0.00  -0.00   0.00     0.00   0.00  -0.00     0.31   0.62  -0.13
  50   1     0.00  -0.00   0.00    -0.00   0.00  -0.00    -0.40   0.49  -0.11
  51   7     0.01  -0.01  -0.00    -0.00   0.00   0.00     0.01  -0.02  -0.00
  52   1    -0.01   0.02   0.00     0.00  -0.00  -0.00    -0.04   0.07   0.01
  53   1    -0.01  -0.00   0.00     0.00   0.00  -0.00    -0.01  -0.00   0.00
                    151                    152                    153
                        a                      a                      a 
 Frequencies --  3561.2631              3566.8271              3571.1002
 Red. masses --     2.1793                 2.1812                 2.1855
 Frc consts  --     0.0000                 0.0000                 0.0000
 IR Inten    --    14.4136                12.0215                15.2743
 Raman Activ --     0.0000                 0.0000                 0.0000
 Depolar     --     0.0000                 0.0000                 0.0000
 Atom AN      X      Y      Z        X      Y      Z        X      Y      Z
   1   8    -0.00  -0.00   0.00    -0.00  -0.00   0.00    -0.00   0.00  -0.00
   2   6     0.00   0.00  -0.00     0.00   0.00   0.00     0.00  -0.00   0.00
   3   1    -0.00  -0.00   0.00    -0.00  -0.00  -0.00     0.00   0.00  -0.00
   4   1     0.00  -0.00   0.00     0.00  -0.00  -0.00    -0.00   0.00   0.00
   5   6    -0.00   0.00  -0.00     0.00  -0.00  -0.00    -0.00  -0.00   0.00
   6   1     0.00   0.00   0.00    -0.00   0.00   0.00     0.00  -0.00  -0.00
   7   1    -0.00  -0.00   0.00    -0.00   0.00  -0.00    -0.00  -0.00   0.00
   8   7    -0.00  -0.00   0.00    -0.00   0.00   0.00    -0.00   0.00  -0.00
   9   6     0.00   0.00  -0.00     0.00   0.00  -0.00    -0.00  -0.00   0.00
  10   1    -0.00   0.00   0.00    -0.00  -0.00   0.00     0.00   0.00  -0.00
  11   1    -0.00  -0.00  -0.00     0.00  -0.00  -0.00    -0.00   0.00  -0.00
  12   1    -0.00   0.00  -0.00     0.00   0.00  -0.00    -0.00  -0.00   0.00
  13   6     0.00   0.00   0.00     0.00   0.00  -0.00    -0.00  -0.00   0.00
  14   1     0.00   0.00   0.00    -0.00  -0.00   0.00     0.00   0.00  -0.00
  15   1    -0.00  -0.00   0.00     0.00   0.00  -0.00     0.00  -0.00  -0.00
  16   1    -0.00  -0.00  -0.00     0.00  -0.00  -0.00    -0.00   0.00   0.00
  17   6     0.00   0.00   0.00     0.00  -0.00   0.00     0.00  -0.00   0.00
  18   1     0.00   0.00  -0.00     0.00   0.00  -0.00    -0.00  -0.00   0.00
  19   1    -0.00  -0.00  -0.00    -0.00  -0.00  -0.00     0.00   0.00  -0.00
  20   1     0.00  -0.00   0.00    -0.00   0.00  -0.00    -0.00   0.00  -0.00
  21   1     0.00   0.00  -0.00     0.00   0.00  -0.00    -0.00  -0.00   0.00
  22   6    -0.00  -0.00  -0.00     0.01   0.00   0.00    -0.00  -0.00  -0.00
  23   8    -0.00  -0.00  -0.00    -0.00  -0.00  -0.00     0.00  -0.00   0.00
  24   7     0.00  -0.00  -0.00     0.02  -0.00  -0.00    -0.00   0.00   0.00
  25   1    -0.00   0.00   0.00    -0.00   0.01   0.01     0.00  -0.00  -0.00
  26   1    -0.01  -0.00   0.00    -0.08  -0.01   0.00     0.00   0.00  -0.00
  27   7    -0.00  -0.00  -0.00     0.25   0.12   0.12    -0.00  -0.00  -0.00
  28   1     0.01  -0.00   0.00    -0.64   0.02  -0.04     0.01  -0.00   0.00
  29   1     0.00   0.01   0.01    -0.29  -0.47  -0.43     0.01   0.01   0.01
  30   6     0.01  -0.01   0.01     0.00  -0.00   0.00     0.00  -0.00   0.00
  31   8    -0.00   0.00  -0.00    -0.00   0.00  -0.00    -0.00   0.00  -0.00
  32   7     0.16  -0.22   0.13     0.00  -0.00   0.00     0.00  -0.00   0.00
  33   1    -0.48   0.17  -0.45    -0.01   0.00  -0.01    -0.00   0.00  -0.00
  34   1    -0.13   0.65  -0.05    -0.00   0.01  -0.00    -0.00   0.00  -0.00
  35   7     0.00  -0.02   0.00    -0.00  -0.00  -0.00    -0.00  -0.00  -0.00
  36   1    -0.01   0.09  -0.02    -0.00   0.00  -0.00    -0.00   0.01  -0.00
  37   1     0.01   0.01   0.01     0.00   0.00   0.00     0.00   0.00   0.00
  38   6     0.00  -0.00  -0.00     0.00  -0.00  -0.00     0.01  -0.01  -0.01
  39   8     0.00   0.00   0.00    -0.00  -0.00  -0.00    -0.00   0.00   0.00
  40   7    -0.00   0.00   0.00     0.00  -0.00  -0.00     0.14  -0.18  -0.20
  41   1     0.00  -0.00  -0.00    -0.01   0.01   0.00    -0.54   0.41   0.15
  42   1     0.00  -0.00  -0.00    -0.00   0.00   0.01    -0.01   0.26   0.60
  43   7    -0.00   0.00  -0.00     0.00   0.00   0.00    -0.00  -0.01  -0.02
  44   1    -0.00   0.00   0.00     0.00  -0.00  -0.01    -0.00   0.03   0.06
  45   1     0.00  -0.00   0.00    -0.00   0.00  -0.00     0.01  -0.01   0.01
  46   6     0.00  -0.00   0.00    -0.00   0.00  -0.00    -0.00   0.00  -0.00
  47   8    -0.00   0.00  -0.00     0.00  -0.00   0.00     0.00  -0.00  -0.00
  48   7     0.00  -0.00   0.00    -0.00   0.00  -0.00    -0.00   0.00  -0.00
  49   1     0.00   0.00  -0.00    -0.00  -0.00   0.00    -0.00  -0.00   0.00
  50   1    -0.00   0.00  -0.00     0.00  -0.00   0.00     0.00  -0.00   0.00
  51   7     0.00  -0.00  -0.00     0.00   0.00   0.00     0.00   0.00   0.00
  52   1    -0.00   0.00   0.00     0.00  -0.00  -0.00     0.00  -0.01  -0.00
  53   1    -0.00  -0.00   0.00    -0.00   0.00   0.00    -0.01  -0.00   0.00
