      -----------------------------------------------------------      
     |                   =====================                   |     
     |                           x T B                           |     
     |                   =====================                   |     
     |                         S. Grimme                         |     
     |          Mulliken Center for Theoretical Chemistry        |     
     |                    University of Bonn                     |     
      -----------------------------------------------------------      

   * xtb version 6.6.1 (unknown-commit) compiled by '@Linux' on 12/27/2023

   xtb is free software: you can redistribute it and/or modify it under
   the terms of the GNU Lesser General Public License as published by
   the Free Software Foundation, either version 3 of the License, or
   (at your option) any later version.
   
   xtb is distributed in the hope that it will be useful,
   but WITHOUT ANY WARRANTY; without even the implied warranty of
   MERCHANTABILITY or FITNESS FOR A PARTICULAR PURPOSE.  See the
   GNU Lesser General Public License for more details.
   
   Cite this work as:
   * C. Bannwarth, E. Caldeweyher, S. Ehlert, A. Hansen, P. Pracht,
     J. Seibert, S. Spicher, S. Grimme, WIREs Comput. Mol. Sci., 2020, 11,
     e01493. DOI: 10.1002/wcms.1493
   
   for GFN2-xTB:
   * C. Bannwarth, S. Ehlert and S. Grimme., J. Chem. Theory Comput., 2019,
     15, 1652-1671. DOI: 10.1021/acs.jctc.8b01176
   for GFN1-xTB:
   * S. Grimme, C. Bannwarth, P. Shushkov, J. Chem. Theory Comput., 2017,
     13, 1989-2009. DOI: 10.1021/acs.jctc.7b00118
   for GFN0-xTB:
   * P. Pracht, E. Caldeweyher, S. Ehlert, S. Grimme, ChemRxiv, 2019, preprint.
     DOI: 10.26434/chemrxiv.8326202.v1
   for GFN-FF:
   * S. Spicher and S. Grimme, Angew. Chem. Int. Ed., 2020, 59, 15665-15673.
     DOI: 10.1002/anie.202004239
   
   for ALPB and GBSA implicit solvation:
   * S. Ehlert, M. Stahn, S. Spicher, S. Grimme, J. Chem. Theory Comput.,
     2021, 17, 4250-4261. DOI: 10.1021/acs.jctc.1c00471
   
   for DFT-D4:
   * E. Caldeweyher, C. Bannwarth and S. Grimme, J. Chem. Phys., 2017,
     147, 034112. DOI: 10.1063/1.4993215
   * E. Caldeweyher, S. Ehlert, A. Hansen, H. Neugebauer, S. Spicher,
     C. Bannwarth and S. Grimme, J. Chem. Phys., 2019, 150, 154122.
     DOI: 10.1063/1.5090222
   * E. Caldeweyher, J.-M. Mewes, S. Ehlert and S. Grimme, Phys. Chem. Chem. Phys.
     2020, 22, 8499-8512. DOI: 10.1039/D0CP00502A
   
   for sTDA-xTB:
   * S. Grimme and C. Bannwarth, J. Chem. Phys., 2016, 145, 054103.
     DOI: 10.1063/1.4959605
   
   in the mass-spec context:
   * V. Asgeirsson, C. Bauer and S. Grimme, Chem. Sci., 2017, 8, 4879.
     DOI: 10.1039/c7sc00601b
   * J. Koopman and S. Grimme, ACS Omega 2019, 4, 12, 15120-15133.
     DOI: 10.1021/acsomega.9b02011
   
   for metadynamics refer to:
   * S. Grimme, J. Chem. Theory Comput., 2019, 155, 2847-2862
     DOI: 10.1021/acs.jctc.9b00143
   
   for SPH calculations refer to:
   * S. Spicher and S. Grimme, J. Chem. Theory Comput., 2021, 17, 1701-1714
     DOI: 10.1021/acs.jctc.0c01306
   
   with help from (in alphabetical order)
   P. Atkinson, C. Bannwarth, F. Bohle, G. Brandenburg, E. Caldeweyher
   M. Checinski, S. Dohm, S. Ehlert, S. Ehrlich, I. Gerasimov, C. Hölzer
   A. Katbashev, J. Koopman, C. Lavigne, S. Lehtola, F. März, M. Müller,
   F. Musil, H. Neugebauer, J. Pisarek, C. Plett, P. Pracht, F. Pultar,
   J. Seibert, P. Shushkov, S. Spicher, M. Stahn, M. Steiner, T. Strunk,
   J. Stückrath, T. Rose, and J. Unsleber
   
 * started run on 2024/01/10 at 15:34:43.692     

           -------------------------------------------------
          |                Calculation Setup                |
           -------------------------------------------------

          program call               : xtb struc.xyz --gfn2 --hess
          hostname                   : swaroop
          coordinate file            : struc.xyz
          omp threads                :                     1

   ID    Z sym.   atoms
    1    8 O      1, 23, 31, 39, 47
    2    6 C      2, 5, 9, 13, 17, 22, 30, 38, 46
    3    1 H      3, 4, 6, 7, 10-12, 14-16, 18-21, 25, 26, 28, 29, 33, 34,
                  36, 37, 41, 42, 44, 45, 49, 50, 52, 53
    4    7 N      8, 24, 27, 32, 35, 40, 43, 48, 51

molecular fragmentation (1/2 indicates fragments):
11111111111111111111122222222222222222222222222222222
# atoms in fragment 1/2:    21    32
 fragment masses (1/2) :      104.17      240.22
CMA distance (Bohr)    :   4.577
constraining FC (au)   :  0.0500

           -------------------------------------------------
          |                 G F N 2 - x T B                 |
           -------------------------------------------------

        Reference                      10.1021/acs.jctc.8b01176
      * Hamiltonian:
        H0-scaling (s, p, d)           1.850000    2.230000    2.230000
        zeta-weighting                 0.500000
      * Dispersion:
        s8                             2.700000
        a1                             0.520000
        a2                             5.000000
        s9                             5.000000
      * Repulsion:
        kExp                           1.500000    1.000000
        rExp                           1.000000
      * Coulomb:
        alpha                          2.000000
        third order                    shell-resolved
        anisotropic                    true
        a3                             3.000000
        a5                             4.000000
        cn-shift                       1.200000
        cn-exp                         4.000000
        max-rad                        5.000000


          ...................................................
          :                      SETUP                      :
          :.................................................:
          :  # basis functions                 122          :
          :  # atomic orbitals                 122          :
          :  # shells                           76          :
          :  # electrons                       140          :
          :  max. iterations                   250          :
          :  Hamiltonian                  GFN2-xTB          :
          :  restarted?                      false          :
          :  GBSA solvation                  false          :
          :  PC potential                    false          :
          :  electronic temp.          300.0000000     K    :
          :  accuracy                    1.0000000          :
          :  -> integral cutoff          0.2500000E+02      :
          :  -> integral neglect         0.1000000E-07      :
          :  -> SCF convergence          0.1000000E-05 Eh   :
          :  -> wf. convergence          0.1000000E-03 e    :
          :  Broyden damping             0.4000000          :
          ...................................................

 iter      E             dE          RMSdq      gap      omega  full diag
   1    -81.5556369 -0.815556E+02  0.436E+00    5.12       0.0  T
   2    -81.8405448 -0.284908E+00  0.237E+00    5.80       1.0  T
   3    -81.8461693 -0.562449E-02  0.116E+00    5.42       1.0  T
   4    -81.8475463 -0.137706E-02  0.236E-01    5.41       1.0  T
   5    -81.8484268 -0.880417E-03  0.916E-02    5.33       1.0  T
   6    -81.8484506 -0.238317E-04  0.263E-02    5.36       1.0  T
   7    -81.8484551 -0.455264E-05  0.738E-03    5.36       1.9  T
   8    -81.8484554 -0.208182E-06  0.260E-03    5.35       5.3  T
   9    -81.8484554 -0.186068E-07  0.826E-04    5.35      16.6  T
  10    -81.8484554 -0.551532E-08  0.193E-04    5.35      71.3  T

   *** convergence criteria satisfied after 10 iterations ***

         #    Occupation            Energy/Eh            Energy/eV
      -------------------------------------------------------------
         1        2.0000           -0.8024341             -21.8353
       ...           ...                  ...                  ...
        64        2.0000           -0.5015745             -13.6485
        65        2.0000           -0.4988842             -13.5753
        66        2.0000           -0.4940451             -13.4437
        67        2.0000           -0.4914027             -13.3717
        68        2.0000           -0.4879099             -13.2767
        69        2.0000           -0.4868108             -13.2468
        70        2.0000           -0.4815858             -13.1046 (HOMO)
        71                         -0.2848983              -7.7525 (LUMO)
        72                         -0.2720331              -7.4024
        73                         -0.2633247              -7.1654
        74                         -0.2544960              -6.9252
        75                         -0.1504500              -4.0940
       ...                                ...                  ...
       122                          0.5545421              15.0899
      -------------------------------------------------------------
                  HL-Gap            0.1966875 Eh            5.3521 eV
             Fermi-level           -0.3832421 Eh          -10.4285 eV

 SCC (total)                   0 d,  0 h,  0 min,  0.077 sec
 SCC setup                      ...        0 min,  0.000 sec (  0.372%)
 Dispersion                     ...        0 min,  0.001 sec (  0.761%)
 classical contributions        ...        0 min,  0.000 sec (  0.234%)
 integral evaluation            ...        0 min,  0.008 sec ( 10.350%)
 iterations                     ...        0 min,  0.040 sec ( 52.164%)
 molecular gradient             ...        0 min,  0.028 sec ( 35.776%)
 printout                       ...        0 min,  0.000 sec (  0.327%)

         :::::::::::::::::::::::::::::::::::::::::::::::::::::
         ::                     SUMMARY                     ::
         :::::::::::::::::::::::::::::::::::::::::::::::::::::
         :: total energy             -80.936231795103 Eh    ::
         :: gradient norm              0.000160184353 Eh/a0 ::
         :: HOMO-LUMO gap              5.352139220410 eV    ::
         ::.................................................::
         :: SCC energy               -81.848455376574 Eh    ::
         :: -> isotropic ES            0.291337521956 Eh    ::
         :: -> anisotropic ES         -0.029777878016 Eh    ::
         :: -> anisotropic XC          0.020226608942 Eh    ::
         :: -> dispersion             -0.045624888130 Eh    ::
         :: repulsion energy           0.910723990231 Eh    ::
         :: add. restraining           0.000000000000 Eh    ::
         :: total charge               1.000000000000 e     ::
         :::::::::::::::::::::::::::::::::::::::::::::::::::::

           ------------------------------------------------- 
          |                Numerical Hessian                |
           ------------------------------------------------- 
step length          :   0.00500
SCC accuracy         :   0.30000
Hessian scale factor :   1.00000
frozen atoms in %    :   0.00000    0
RMS gradient         :   0.00016
estimated CPU  time      0.24 min
estimated wall time      0.24 min

writing file <hessian>.

 projected vibrational frequencies (cm⁻¹)
eigval :       -0.00    -0.00    -0.00    -0.00     0.00     0.00
eigval :       11.14    27.04    27.80    32.45    34.68    44.85
eigval :       45.69    50.62    56.88    58.45    71.15    73.37
eigval :       80.80    89.08    96.18   102.87   107.73   122.62
eigval :      130.18   130.29   140.39   158.47   163.45   175.24
eigval :      209.95   229.16   247.70   254.14   258.96   290.51
eigval :      314.90   317.83   344.17   351.75   367.38   381.79
eigval :      389.55   399.48   424.72   428.36   461.85   465.27
eigval :      466.72   468.00   471.85   472.65   479.43   480.85
eigval :      482.63   484.63   495.44   539.52   541.22   542.07
eigval :      559.10   568.16   630.88   659.47   672.06   675.26
eigval :      676.97   685.98   708.07   752.42   762.14   803.91
eigval :      907.00   921.43   959.23   965.18   970.47   976.09
eigval :      994.14  1008.19  1011.00  1015.70  1018.83  1028.57
eigval :     1030.10  1040.51  1042.81  1083.63  1086.25  1092.03
eigval :     1092.89  1094.03  1113.19  1131.96  1185.84  1223.93
eigval :     1254.02  1282.90  1318.95  1332.51  1348.72  1352.33
eigval :     1357.83  1360.98  1366.75  1386.74  1400.81  1405.21
eigval :     1419.21  1436.32  1441.67  1443.17  1446.32  1450.18
eigval :     1453.33  1453.84  1459.99  1461.60  1475.76  1478.73
eigval :     1482.87  1496.76  1502.58  1517.03  1519.21  1650.38
eigval :     1685.76  1710.17  1720.62  2930.96  2945.43  2958.36
eigval :     2995.24  3021.91  3040.98  3043.07  3043.29  3046.98
eigval :     3053.69  3054.52  3062.27  3080.54  3086.77  3240.80
eigval :     3250.01  3305.40  3371.97  3489.79  3492.86  3495.28
eigval :     3501.07  3520.89  3527.26  3537.12  3543.28  3553.35
eigval :     3559.99  3560.71  3568.25
           -------------------------------------------------
          |                Property Printout                |
           -------------------------------------------------

    * Orbital Energies and Occupations

         #    Occupation            Energy/Eh            Energy/eV
      -------------------------------------------------------------
         1        2.0000           -0.8024334             -21.8353
       ...           ...                  ...                  ...
        58        2.0000           -0.5186601             -14.1135
        59        2.0000           -0.5157479             -14.0342
        60        2.0000           -0.5104397             -13.8898
        61        2.0000           -0.5101240             -13.8812
        62        2.0000           -0.5076359             -13.8135
        63        2.0000           -0.5029110             -13.6849
        64        2.0000           -0.5015743             -13.6485
        65        2.0000           -0.4988861             -13.5754
        66        2.0000           -0.4940466             -13.4437
        67        2.0000           -0.4914045             -13.3718
        68        2.0000           -0.4879117             -13.2768
        69        2.0000           -0.4868124             -13.2468
        70        2.0000           -0.4815876             -13.1047 (HOMO)
        71                         -0.2848988              -7.7525 (LUMO)
        72                         -0.2720305              -7.4023
        73                         -0.2633285              -7.1655
        74                         -0.2544985              -6.9253
        75                         -0.1504495              -4.0939
        76                         -0.1115700              -3.0360
        77                         -0.0890916              -2.4243
        78                         -0.0844542              -2.2981
        79                         -0.0801039              -2.1797
        80                         -0.0745207              -2.0278
        81                         -0.0705705              -1.9203
       ...                                ...                  ...
       122                          0.5545398              15.0898
      -------------------------------------------------------------
                  HL-Gap            0.1966889 Eh            5.3522 eV
             Fermi-level           -0.3832432 Eh          -10.4286 eV

     #   Z          covCN         q      C6AA      α(0)
     1   8 O        1.654    -0.464    22.131     6.351
     2   6 C        3.672     0.075    19.553     6.337
     3   1 H        0.924     0.033     2.541     2.493
     4   1 H        0.924     0.061     2.190     2.314
     5   6 C        3.763    -0.067    21.819     6.658
     6   1 H        0.924     0.134     1.505     1.918
     7   1 H        0.924     0.069     2.101     2.267
     8   7 N        3.623     0.158    18.580     6.402
     9   6 C        3.740    -0.117    22.830     6.817
    10   1 H        0.925     0.077     2.005     2.214
    11   1 H        0.925     0.126     1.564     1.955
    12   1 H        0.925     0.119     1.624     1.993
    13   6 C        3.723    -0.108    22.671     6.799
    14   1 H        0.925     0.088     1.900     2.155
    15   1 H        0.924     0.128     1.553     1.949
    16   1 H        0.925     0.075     2.029     2.227
    17   6 C        3.731    -0.123    22.961     6.840
    18   1 H        0.925     0.109     1.701     2.040
    19   1 H        0.925     0.117     1.635     2.000
    20   1 H        0.925     0.107     1.723     2.053
    21   1 H        0.803     0.334     0.627     1.244
    22   6 C        2.675     0.340    21.216     7.537
    23   8 O        0.861    -0.543    24.750     6.670
    24   7 N        2.643    -0.309    27.956     7.853
    25   1 H        0.859     0.255     0.866     1.458
    26   1 H        0.860     0.181     1.208     1.722
    27   7 N        2.644    -0.292    27.521     7.791
    28   1 H        0.860     0.187     1.174     1.697
    29   1 H        0.860     0.205     1.079     1.627
    30   6 C        2.675     0.343    21.179     7.531
    31   8 O        0.860    -0.526    24.372     6.619
    32   7 N        2.644    -0.296    27.620     7.805
    33   1 H        0.860     0.197     1.121     1.659
    34   1 H        0.860     0.182     1.205     1.720
    35   7 N        2.643    -0.322    28.284     7.899
    36   1 H        0.860     0.175     1.246     1.748
    37   1 H        0.860     0.236     0.941     1.520
    38   6 C        2.675     0.343    21.177     7.530
    39   8 O        0.860    -0.527    24.398     6.623
    40   7 N        2.644    -0.306    27.887     7.843
    41   1 H        0.860     0.228     0.975     1.546
    42   1 H        0.861     0.177     1.232     1.738
    43   7 N        2.645    -0.291    27.502     7.789
    44   1 H        0.861     0.182     1.204     1.719
    45   1 H        0.860     0.199     1.109     1.649
    46   6 C        2.675     0.343    21.180     7.531
    47   8 O        0.860    -0.516    24.149     6.589
    48   7 N        2.645    -0.301    27.742     7.823
    49   1 H        0.860     0.238     0.932     1.513
    50   1 H        0.861     0.182     1.201     1.717
    51   7 N        2.645    -0.288    27.425     7.778
    52   1 H        0.861     0.186     1.180     1.701
    53   1 H        0.860     0.206     1.074     1.623

 Mol. C6AA /au·bohr⁶  :      21800.693894
 Mol. C8AA /au·bohr⁸  :     454467.042890
 Mol. α(0) /au        :        220.592682


Wiberg/Mayer (AO) data.
largest (>0.10) Wiberg bond orders for each atom

 ---------------------------------------------------------------------------
     #   Z sym  total        # sym  WBO       # sym  WBO       # sym  WBO
 ---------------------------------------------------------------------------
     1   8 O    1.971 --     2 C    1.013    21 H    0.824
     2   6 C    3.965 --     1 O    1.013     5 C    0.993     3 H    0.967
                             4 H    0.964
     3   1 H    0.999 --     2 C    0.967
     4   1 H    0.996 --     2 C    0.964
     5   6 C    3.933 --     2 C    0.993     7 H    0.970     8 N    0.938
                             6 H    0.937
     6   1 H    0.982 --     5 C    0.937
     7   1 H    0.995 --     5 C    0.970
     8   7 N    3.822 --    13 C    0.962     9 C    0.953    17 C    0.951
                             5 C    0.938
     9   6 C    3.917 --    10 H    0.979    12 H    0.969    11 H    0.961
                             8 N    0.953
    10   1 H    0.994 --     9 C    0.979
    11   1 H    0.984 --     9 C    0.961
    12   1 H    0.986 --     9 C    0.969
    13   6 C    3.930 --    16 H    0.980    14 H    0.972     8 N    0.962
                            15 H    0.955
    14   1 H    0.992 --    13 C    0.972
    15   1 H    0.984 --    13 C    0.955
    16   1 H    0.994 --    13 C    0.980
    17   6 C    3.910 --    20 H    0.969    19 H    0.963    18 H    0.959
                             8 N    0.951
    18   1 H    0.988 --    17 C    0.959
    19   1 H    0.986 --    17 C    0.963
    20   1 H    0.989 --    17 C    0.969
    21   1 H    0.888 --     1 O    0.824
    22   6 C    3.960 --    23 O    1.454    24 N    1.275    27 N    1.214
    23   8 O    1.897 --    22 C    1.454    24 N    0.139    27 N    0.125
    24   7 N    3.351 --    22 C    1.275    26 H    0.947    25 H    0.852
                            23 O    0.139
    25   1 H    0.935 --    24 N    0.852
    26   1 H    0.967 --    24 N    0.947
    27   7 N    3.325 --    22 C    1.214    28 H    0.946    29 H    0.940
                            23 O    0.125
    28   1 H    0.965 --    27 N    0.946
    29   1 H    0.958 --    27 N    0.940
    30   6 C    3.959 --    31 O    1.535    35 N    1.218    32 N    1.198
    31   8 O    1.894 --    30 C    1.535    35 N    0.144    32 N    0.140
    32   7 N    3.312 --    30 C    1.198    34 H    0.948    33 H    0.944
                            31 O    0.140
    33   1 H    0.961 --    32 N    0.944
    34   1 H    0.967 --    32 N    0.948
    35   7 N    3.308 --    30 C    1.218    36 H    0.949    37 H    0.880
                            31 O    0.144
    36   1 H    0.969 --    35 N    0.949
    37   1 H    0.944 --    35 N    0.880
    38   6 C    3.959 --    39 O    1.524    40 N    1.224    43 N    1.204
    39   8 O    1.894 --    38 C    1.524    40 N    0.145    43 N    0.139
    40   7 N    3.323 --    38 C    1.224    42 H    0.950    41 H    0.902
                            39 O    0.145
    41   1 H    0.948 --    40 N    0.902
    42   1 H    0.969 --    40 N    0.950
    43   7 N    3.320 --    38 C    1.204    44 H    0.948    45 H    0.943
                            39 O    0.139
    44   1 H    0.967 --    43 N    0.948
    45   1 H    0.960 --    43 N    0.943
    46   6 C    3.960 --    47 O    1.476    48 N    1.256    51 N    1.220
    47   8 O    1.943 --    46 C    1.476    48 N    0.140    51 N    0.130
    48   7 N    3.347 --    46 C    1.256    50 H    0.947    49 H    0.881
                            47 O    0.140
    49   1 H    0.943 --    48 N    0.881
    50   1 H    0.966 --    48 N    0.947
    51   7 N    3.330 --    46 C    1.220    52 H    0.947    53 H    0.935
                            47 O    0.130
    52   1 H    0.965 --    51 N    0.947
    53   1 H    0.957 --    51 N    0.935
 ---------------------------------------------------------------------------

Topologies differ in total number of bonds
Writing topology from bond orders to xtbtopo.mol

molecular dipole:
                 x           y           z       tot (Debye)
 q only:        0.307       0.277      -0.349
   full:        0.643       0.555      -0.061       2.165
molecular quadrupole (traceless):
                xx          xy          yy          xz          yz          zz
 q only:       -4.387       2.166      21.309      -4.340      -5.947     -16.922
  q+dip:       -2.759       1.187      26.104      -6.972      -8.547     -23.345
   full:       -3.067       1.337      25.259      -6.629      -8.329     -22.192

           -------------------------------------------------
          |               Frequency Printout                |
           -------------------------------------------------
 projected vibrational frequencies (cm⁻¹)
eigval :       -0.00    -0.00    -0.00    -0.00     0.00     0.00
eigval :       11.14    27.04    27.80    32.45    34.68    44.85
eigval :       45.69    50.62    56.88    58.45    71.15    73.37
eigval :       80.80    89.08    96.18   102.87   107.73   122.62
eigval :      130.18   130.29   140.39   158.47   163.45   175.24
eigval :      209.95   229.16   247.70   254.14   258.96   290.51
eigval :      314.90   317.83   344.17   351.75   367.38   381.79
eigval :      389.55   399.48   424.72   428.36   461.85   465.27
eigval :      466.72   468.00   471.85   472.65   479.43   480.85
eigval :      482.63   484.63   495.44   539.52   541.22   542.07
eigval :      559.10   568.16   630.88   659.47   672.06   675.26
eigval :      676.97   685.98   708.07   752.42   762.14   803.91
eigval :      907.00   921.43   959.23   965.18   970.47   976.09
eigval :      994.14  1008.19  1011.00  1015.70  1018.83  1028.57
eigval :     1030.10  1040.51  1042.81  1083.63  1086.25  1092.03
eigval :     1092.89  1094.03  1113.19  1131.96  1185.84  1223.93
eigval :     1254.02  1282.90  1318.95  1332.51  1348.72  1352.33
eigval :     1357.83  1360.98  1366.75  1386.74  1400.81  1405.21
eigval :     1419.21  1436.32  1441.67  1443.17  1446.32  1450.18
eigval :     1453.33  1453.84  1459.99  1461.60  1475.76  1478.73
eigval :     1482.87  1496.76  1502.58  1517.03  1519.21  1650.38
eigval :     1685.76  1710.17  1720.62  2930.96  2945.43  2958.36
eigval :     2995.24  3021.91  3040.98  3043.07  3043.29  3046.98
eigval :     3053.69  3054.52  3062.27  3080.54  3086.77  3240.80
eigval :     3250.01  3305.40  3371.97  3489.79  3492.86  3495.28
eigval :     3501.07  3520.89  3527.26  3537.12  3543.28  3553.35
eigval :     3559.99  3560.71  3568.25
 reduced masses (amu)
   1: 12.58   2: 12.74   3: 12.57   4: 12.34   5: 12.62   6: 12.67   7: 12.26   8: 12.14
   9: 12.47  10: 12.18  11: 12.49  12: 12.18  13: 12.53  14: 12.55  15: 12.62  16: 11.95
  17: 12.79  18: 12.81  19: 11.35  20: 12.75  21: 12.43  22: 13.69  23: 12.94  24: 11.35
  25: 12.72  26: 13.02  27: 12.31  28: 12.32  29: 10.99  30: 12.00  31: 12.71  32:  3.00
  33:  9.30  34:  6.19  35:  5.47  36:  6.82  37:  5.45  38:  4.03  39:  2.77  40:  3.27
  41:  5.94  42:  3.62  43:  3.27  44:  3.13  45:  3.30  46:  8.35  47:  8.07  48:  7.86
  49:  7.63  50:  1.99  51:  3.74  52:  7.06  53:  4.68  54:  4.41  55:  3.58  56:  4.04
  57:  8.48  58:  9.96  59:  9.92  60: 11.22  61: 11.24  62: 12.03  63:  2.15  64:  6.74
  65: 11.27  66: 11.79  67: 11.80  68:  5.77  69:  2.83  70:  2.21  71:  9.39  72:  2.02
  73:  8.04  74:  7.28  75:  5.10  76:  4.86  77:  5.01  78:  4.82  79:  7.84  80:  9.18
  81:  9.48  82:  7.47  83:  9.06  84:  8.73  85:  7.55  86:  3.62  87:  6.33  88:  9.26
  89:  8.89  90:  8.87  91:  8.27  92:  7.97  93:  4.26  94:  6.51  95:  3.68  96:  5.42
  97:  5.87  98:  7.92  99:  6.21 100:  3.72 101:  4.01 102:  5.51 103:  4.25 104:  5.12
 105:  4.19 106:  4.33 107:  2.48 108:  2.50 109:  2.02 110:  2.37 111:  1.87 112:  2.90
 113:  2.54 114:  2.69 115:  2.20 116:  2.92 117:  2.88 118:  1.83 119:  1.67 120:  1.66
 121:  1.67 122:  7.87 123:  8.22 124:  9.61 125:  9.74 126: 12.23 127: 12.62 128: 12.75
 129: 12.75 130:  1.95 131:  1.51 132:  1.73 133:  1.76 134:  1.75 135:  1.61 136:  1.80
 137:  1.45 138:  1.83 139:  1.95 140:  1.76 141:  1.72 142:  1.77 143:  1.82 144:  1.82
 145:  1.84 146:  1.76 147:  1.69 148:  1.46 149:  1.46 150:  1.45 151:  1.45 152:  1.91
 153:  1.89 154:  1.96 155:  1.94 156:  2.18 157:  2.18 158:  2.17 159:  2.18
 IR intensities (km·mol⁻¹)
   1:  1.27   2:  1.15   3:  1.47   4:  0.53   5:  1.66   6:  2.68   7:  0.25   8:  0.69
   9:  0.38  10:  2.48  11:  0.86  12:  2.06  13:  8.43  14:  1.80  15:  0.35  16:  9.68
  17:  0.51  18:  2.82  19:  3.73  20:  9.08  21:  2.79  22:  6.75  23: 12.28  24:  9.43
  25:  6.56  26: 15.78  27:  7.72  28:  5.22  29: 27.53  30: 23.86  31: 65.18  32:133.05
  33:132.65  34: 36.29  35: 15.26  36:  1.29  37: 52.08  38:114.99  39: 57.55  40: 34.88
  41:  7.34  42:256.44  43:149.60  44:155.88  45:174.43  46:  9.25  47:  5.39  48:  9.37
  49: 15.09  50: 17.84  51:324.91  52: 50.85  53:  3.73  54:  9.84  55: 24.75  56: 15.16
  57: 34.85  58:  5.73  59: 17.96  60: 14.40  61: 11.37  62: 54.86  63:116.24  64: 47.47
  65: 38.12  66: 15.25  67: 27.74  68:168.10  69:133.87  70:148.82  71:  2.02  72:424.01
  73:  1.87  74:  7.95  75:  1.99  76:  7.44  77:  2.95  78:  3.30  79: 36.40  80:  1.54
  81:  5.35  82: 14.02  83:  1.70  84:  7.63  85: 35.16  86:  1.96  87:  0.36  88:  0.83
  89:  0.85  90: 53.99  91:  6.15  92:  2.43  93:  4.45  94: 33.62  95:  0.81  96: 28.30
  97:  6.57  98: 32.54  99:  2.01 100: 41.69 101: 97.47 102:152.95 103:105.51 104:107.53
 105: 62.34 106:  6.23 107: 25.76 108: 14.16 109:  3.81 110:  7.11 111:  2.45 112:  2.44
 113:  9.72 114:  0.30 115: 13.13 116:  9.15 117: 17.09 118:  9.39 119:  7.08 120: 14.40
 121: 27.09 122:459.33 123:508.21 124:683.98 125:300.17 126:252.25 127:****** 128:******
 129:293.28 130: 50.60 131: 72.14 132: 31.32 133: 19.35 134: 21.33 135: 24.12 136:  0.79
 137: 21.23 138:  5.75 139: 29.88 140:  2.28 141: 28.19 142:262.51 143:902.62 144:633.14
 145:849.71 146:697.78 147:333.99 148: 24.22 149: 42.17 150: 12.99 151: 20.78 152: 11.81
 153: 14.38 154: 18.28 155: 18.89 156: 17.54 157: 11.80 158: 26.59 159: 13.04
 Raman intensities (amu)
Molecule has no symmetry elements
It seems to be the C1 point group
   1:  0.00   2:  0.00   3:  0.00   4:  0.00   5:  0.00   6:  0.00   7:  0.00   8:  0.00
   9:  0.00  10:  0.00  11:  0.00  12:  0.00  13:  0.00  14:  0.00  15:  0.00  16:  0.00
  17:  0.00  18:  0.00  19:  0.00  20:  0.00  21:  0.00  22:  0.00  23:  0.00  24:  0.00
  25:  0.00  26:  0.00  27:  0.00  28:  0.00  29:  0.00  30:  0.00  31:  0.00  32:  0.00
  33:  0.00  34:  0.00  35:  0.00  36:  0.00  37:  0.00  38:  0.00  39:  0.00  40:  0.00
  41:  0.00  42:  0.00  43:  0.00  44:  0.00  45:  0.00  46:  0.00  47:  0.00  48:  0.00
  49:  0.00  50:  0.00  51:  0.00  52:  0.00  53:  0.00  54:  0.00  55:  0.00  56:  0.00
  57:  0.00  58:  0.00  59:  0.00  60:  0.00  61:  0.00  62:  0.00  63:  0.00  64:  0.00
  65:  0.00  66:  0.00  67:  0.00  68:  0.00  69:  0.00  70:  0.00  71:  0.00  72:  0.00
  73:  0.00  74:  0.00  75:  0.00  76:  0.00  77:  0.00  78:  0.00  79:  0.00  80:  0.00
  81:  0.00  82:  0.00  83:  0.00  84:  0.00  85:  0.00  86:  0.00  87:  0.00  88:  0.00
  89:  0.00  90:  0.00  91:  0.00  92:  0.00  93:  0.00  94:  0.00  95:  0.00  96:  0.00
  97:  0.00  98:  0.00  99:  0.00 100:  0.00 101:  0.00 102:  0.00 103:  0.00 104:  0.00
 105:  0.00 106:  0.00 107:  0.00 108:  0.00 109:  0.00 110:  0.00 111:  0.00 112:  0.00
 113:  0.00 114:  0.00 115:  0.00 116:  0.00 117:  0.00 118:  0.00 119:  0.00 120:  0.00
 121:  0.00 122:  0.00 123:  0.00 124:  0.00 125:  0.00 126:  0.00 127:  0.00 128:  0.00
 129:  0.00 130:  0.00 131:  0.00 132:  0.00 133:  0.00 134:  0.00 135:  0.00 136:  0.00
 137:  0.00 138:  0.00 139:  0.00 140:  0.00 141:  0.00 142:  0.00 143:  0.00 144:  0.00
 145:  0.00 146:  0.00 147:  0.00 148:  0.00 149:  0.00 150:  0.00 151:  0.00 152:  0.00
 153:  0.00 154:  0.00 155:  0.00 156:  0.00 157:  0.00 158:  0.00 159:  0.00
 output can be read by thermo (or use thermo option).
 writing <g98.out> molden fake output.
 recommended (thermochemical) frequency scaling factor: 1.0
           -------------------------------------------------
          |             Thermodynamic Functions             |
           -------------------------------------------------

c1  symmetry found (for desy threshold:  0.10E+00) used in thermo

          ...................................................
          :                      SETUP                      :
          :.................................................:
          :  # frequencies                         153      :
          :  # imaginary freq.                       0      :
          :  linear?                             false      :
          :  only rotor calc.                    false      :
          :  symmetry                               c1      :
          :  rotational number                       1      :
          :  scaling factor                  1.0000000      :
          :  rotor cutoff                   50.0000000 cm⁻¹ :
          :  imag. cutoff                  -20.0000000 cm⁻¹ :
          :.................................................:

    mode    ω/cm⁻¹     T·S(HO)/kcal·mol⁻¹    T·S(FR)/kcal·mol⁻¹   T·S(vib)
   ------------------------------------------------------------------------
       1     11.14    -2.32440 (  0.25%)    -1.50114 ( 99.75%)    -1.50317
       2     27.04    -1.79951 (  7.88%)    -1.23860 ( 92.12%)    -1.28279
       3     27.80    -1.78301 (  8.73%)    -1.23034 ( 91.27%)    -1.27858
       4     32.45    -1.69169 ( 15.06%)    -1.18461 ( 84.94%)    -1.26098
       5     34.68    -1.65239 ( 18.79%)    -1.16492 ( 81.21%)    -1.25650
       6     44.85    -1.50038 ( 39.31%)    -1.08869 ( 60.69%)    -1.25051
       7     45.69    -1.48942 ( 41.09%)    -1.08319 ( 58.91%)    -1.25012
       8     50.62    -1.42906 ( 51.23%)    -1.05288 ( 48.77%)    -1.24559
       9     56.88    -1.36031 ( 62.62%)    -1.01832 ( 37.38%)    -1.23247
      10     58.45    -1.34435 ( 65.12%)    -1.01028 ( 34.88%)    -1.22783
      11     71.15    -1.22875 ( 80.39%)    -0.95202 ( 19.61%)    -1.17450
      12     73.37    -1.21072 ( 82.26%)    -0.94291 ( 17.74%)    -1.16321
      13     80.80    -1.15426 ( 87.21%)    -0.91436 ( 12.79%)    -1.12358
      14     89.08    -1.09727 ( 90.97%)    -0.88546 (  9.03%)    -1.07814
      15     96.18    -1.05258 ( 93.19%)    -0.86274 (  6.81%)    -1.03965
      16    102.87    -1.01348 ( 94.71%)    -0.84282 (  5.29%)    -1.00446
      17    107.73    -0.98670 ( 95.57%)    -0.82914 (  4.43%)    -0.97972
      18    122.62    -0.91192 ( 97.31%)    -0.79078 (  2.69%)    -0.90866
      19    130.18    -0.87756 ( 97.87%)    -0.77306 (  2.13%)    -0.87534
      20    130.29    -0.87708 ( 97.88%)    -0.77281 (  2.12%)    -0.87487
      21    140.39    -0.83439 ( 98.42%)    -0.75070 (  1.58%)    -0.83306
      22    158.47    -0.76565 ( 99.02%)    -0.71482 (  0.98%)    -0.76515
      23    163.45    -0.74820 ( 99.13%)    -0.70565 (  0.87%)    -0.74784
      24    175.24    -0.70916 ( 99.34%)    -0.68501 (  0.66%)    -0.70900
      25    209.95    -0.60945 ( 99.68%)    -0.63148 (  0.32%)    -0.60952
      26    229.16    -0.56217 ( 99.77%)    -0.60555 (  0.23%)    -0.56227
      27    247.70    -0.52083 ( 99.83%)    -0.58250 (  0.17%)    -0.52093
      28    254.14    -0.50736 ( 99.85%)    -0.57490 (  0.15%)    -0.50746
      29    258.96    -0.49754 ( 99.86%)    -0.56933 (  0.14%)    -0.49764
      30    290.51    -0.43857 ( 99.91%)    -0.53527 (  0.09%)    -0.43865
   ------------------------------------------------------------------------

   temp. (K)  partition function   enthalpy   heat capacity  entropy
                                   cal/mol     cal/K/mol   cal/K/mol   J/K/mol
 298.15  VIB  0.113E+17            19159.431    104.675    125.061
         ROT  0.130E+08              888.752      2.981     35.531
         INT  0.147E+24            20048.183    107.656    160.592
         TR   0.618E+28             1481.254      4.968     43.384
         TOT                       21529.4373   112.6243   203.9766   853.4379

       T/K    H(0)-H(T)+PV         H(T)/Eh          T*S/Eh         G(T)/Eh
   ------------------------------------------------------------------------
    298.15    0.343093E-01    0.473988E+00    0.969158E-01    0.377072E+00
   ------------------------------------------------------------------------

         :::::::::::::::::::::::::::::::::::::::::::::::::::::
         ::                  THERMODYNAMIC                  ::
         :::::::::::::::::::::::::::::::::::::::::::::::::::::
         :: total free energy         -80.559159774974 Eh   ::
         ::.................................................::
         :: total energy              -80.936231795608 Eh   ::
         :: zero point energy           0.439678520746 Eh   ::
         :: G(RRHO) w/o ZPVE           -0.062606500111 Eh   ::
         :: G(RRHO) contrib.            0.377072020635 Eh   ::
         :::::::::::::::::::::::::::::::::::::::::::::::::::::

           -------------------------------------------------
          | TOTAL ENERGY              -80.936231795608 Eh   |
          | TOTAL ENTHALPY            -80.462243932643 Eh   |
          | TOTAL FREE ENERGY         -80.559159774974 Eh   |
          | GRADIENT NORM               0.000160272381 Eh/α |
          | HOMO-LUMO GAP               5.352177038113 eV   |
           -------------------------------------------------

------------------------------------------------------------------------
 * finished run on 2024/01/10 at 15:34:58.329     
------------------------------------------------------------------------
 total:
 * wall-time:     0 d,  0 h,  0 min, 14.636 sec
 *  cpu-time:     0 d,  0 h,  0 min, 14.594 sec
 * ratio c/w:     0.997 speedup
 SCF:
 * wall-time:     0 d,  0 h,  0 min,  0.078 sec
 *  cpu-time:     0 d,  0 h,  0 min,  0.057 sec
 * ratio c/w:     0.738 speedup
 analytical hessian:
 * wall-time:     0 d,  0 h,  0 min, 14.532 sec
 *  cpu-time:     0 d,  0 h,  0 min, 14.510 sec
 * ratio c/w:     0.998 speedup

