      -----------------------------------------------------------      
     |                   =====================                   |     
     |                           x T B                           |     
     |                   =====================                   |     
     |                         S. Grimme                         |     
     |          Mulliken Center for Theoretical Chemistry        |     
     |                    University of Bonn                     |     
      -----------------------------------------------------------      

   * xtb version 6.6.1 (unknown-commit) compiled by '@Linux' on 12/27/2023

   xtb is free software: you can redistribute it and/or modify it under
   the terms of the GNU Lesser General Public License as published by
   the Free Software Foundation, either version 3 of the License, or
   (at your option) any later version.
   
   xtb is distributed in the hope that it will be useful,
   but WITHOUT ANY WARRANTY; without even the implied warranty of
   MERCHANTABILITY or FITNESS FOR A PARTICULAR PURPOSE.  See the
   GNU Lesser General Public License for more details.
   
   Cite this work as:
   * C. Bannwarth, E. Caldeweyher, S. Ehlert, A. Hansen, P. Pracht,
     J. Seibert, S. Spicher, S. Grimme, WIREs Comput. Mol. Sci., 2020, 11,
     e01493. DOI: 10.1002/wcms.1493
   
   for GFN2-xTB:
   * C. Bannwarth, S. Ehlert and S. Grimme., J. Chem. Theory Comput., 2019,
     15, 1652-1671. DOI: 10.1021/acs.jctc.8b01176
   for GFN1-xTB:
   * S. Grimme, C. Bannwarth, P. Shushkov, J. Chem. Theory Comput., 2017,
     13, 1989-2009. DOI: 10.1021/acs.jctc.7b00118
   for GFN0-xTB:
   * P. Pracht, E. Caldeweyher, S. Ehlert, S. Grimme, ChemRxiv, 2019, preprint.
     DOI: 10.26434/chemrxiv.8326202.v1
   for GFN-FF:
   * S. Spicher and S. Grimme, Angew. Chem. Int. Ed., 2020, 59, 15665-15673.
     DOI: 10.1002/anie.202004239
   
   for ALPB and GBSA implicit solvation:
   * S. Ehlert, M. Stahn, S. Spicher, S. Grimme, J. Chem. Theory Comput.,
     2021, 17, 4250-4261. DOI: 10.1021/acs.jctc.1c00471
   
   for DFT-D4:
   * E. Caldeweyher, C. Bannwarth and S. Grimme, J. Chem. Phys., 2017,
     147, 034112. DOI: 10.1063/1.4993215
   * E. Caldeweyher, S. Ehlert, A. Hansen, H. Neugebauer, S. Spicher,
     C. Bannwarth and S. Grimme, J. Chem. Phys., 2019, 150, 154122.
     DOI: 10.1063/1.5090222
   * E. Caldeweyher, J.-M. Mewes, S. Ehlert and S. Grimme, Phys. Chem. Chem. Phys.
     2020, 22, 8499-8512. DOI: 10.1039/D0CP00502A
   
   for sTDA-xTB:
   * S. Grimme and C. Bannwarth, J. Chem. Phys., 2016, 145, 054103.
     DOI: 10.1063/1.4959605
   
   in the mass-spec context:
   * V. Asgeirsson, C. Bauer and S. Grimme, Chem. Sci., 2017, 8, 4879.
     DOI: 10.1039/c7sc00601b
   * J. Koopman and S. Grimme, ACS Omega 2019, 4, 12, 15120-15133.
     DOI: 10.1021/acsomega.9b02011
   
   for metadynamics refer to:
   * S. Grimme, J. Chem. Theory Comput., 2019, 155, 2847-2862
     DOI: 10.1021/acs.jctc.9b00143
   
   for SPH calculations refer to:
   * S. Spicher and S. Grimme, J. Chem. Theory Comput., 2021, 17, 1701-1714
     DOI: 10.1021/acs.jctc.0c01306
   
   with help from (in alphabetical order)
   P. Atkinson, C. Bannwarth, F. Bohle, G. Brandenburg, E. Caldeweyher
   M. Checinski, S. Dohm, S. Ehlert, S. Ehrlich, I. Gerasimov, C. Hölzer
   A. Katbashev, J. Koopman, C. Lavigne, S. Lehtola, F. März, M. Müller,
   F. Musil, H. Neugebauer, J. Pisarek, C. Plett, P. Pracht, F. Pultar,
   J. Seibert, P. Shushkov, S. Spicher, M. Stahn, M. Steiner, T. Strunk,
   J. Stückrath, T. Rose, and J. Unsleber
   
 * started run on 2024/01/10 at 15:33:28.568     

           -------------------------------------------------
          |                Calculation Setup                |
           -------------------------------------------------

          program call               : xtb struc.xyz --gfn2 --hess
          hostname                   : swaroop
          coordinate file            : struc.xyz
          omp threads                :                     1

   ID    Z sym.   atoms
    1    8 O      1, 23, 31, 39, 47
    2    6 C      2, 5, 9, 13, 17, 22, 30, 38, 46
    3    1 H      3, 4, 6, 7, 10-12, 14-16, 18-21, 25, 26, 28, 29, 33, 34,
                  36, 37, 41, 42, 44, 45, 49, 50, 52, 53
    4    7 N      8, 24, 27, 32, 35, 40, 43, 48, 51

molecular fragmentation (1/2 indicates fragments):
11111111111111111111122222222222222222222222222222222
# atoms in fragment 1/2:    21    32
 fragment masses (1/2) :      104.17      240.22
CMA distance (Bohr)    :   5.701
constraining FC (au)   :  0.0500

           -------------------------------------------------
          |                 G F N 2 - x T B                 |
           -------------------------------------------------

        Reference                      10.1021/acs.jctc.8b01176
      * Hamiltonian:
        H0-scaling (s, p, d)           1.850000    2.230000    2.230000
        zeta-weighting                 0.500000
      * Dispersion:
        s8                             2.700000
        a1                             0.520000
        a2                             5.000000
        s9                             5.000000
      * Repulsion:
        kExp                           1.500000    1.000000
        rExp                           1.000000
      * Coulomb:
        alpha                          2.000000
        third order                    shell-resolved
        anisotropic                    true
        a3                             3.000000
        a5                             4.000000
        cn-shift                       1.200000
        cn-exp                         4.000000
        max-rad                        5.000000


          ...................................................
          :                      SETUP                      :
          :.................................................:
          :  # basis functions                 122          :
          :  # atomic orbitals                 122          :
          :  # shells                           76          :
          :  # electrons                       140          :
          :  max. iterations                   250          :
          :  Hamiltonian                  GFN2-xTB          :
          :  restarted?                      false          :
          :  GBSA solvation                  false          :
          :  PC potential                    false          :
          :  electronic temp.          300.0000000     K    :
          :  accuracy                    1.0000000          :
          :  -> integral cutoff          0.2500000E+02      :
          :  -> integral neglect         0.1000000E-07      :
          :  -> SCF convergence          0.1000000E-05 Eh   :
          :  -> wf. convergence          0.1000000E-03 e    :
          :  Broyden damping             0.4000000          :
          ...................................................

 iter      E             dE          RMSdq      gap      omega  full diag
   1    -81.5646928 -0.815647E+02  0.428E+00    5.12       0.0  T
   2    -81.8400453 -0.275353E+00  0.235E+00    5.86       1.0  T
   3    -81.8455923 -0.554695E-02  0.114E+00    5.61       1.0  T
   4    -81.8469603 -0.136802E-02  0.244E-01    5.74       1.0  T
   5    -81.8478971 -0.936765E-03  0.919E-02    5.66       1.0  T
   6    -81.8479214 -0.243289E-04  0.256E-02    5.66       1.0  T
   7    -81.8479251 -0.367964E-05  0.756E-03    5.66       1.8  T
   8    -81.8479254 -0.294653E-06  0.260E-03    5.66       5.3  T
   9    -81.8479254 -0.122331E-07  0.833E-04    5.66      16.5  T
  10    -81.8479254 -0.525846E-08  0.180E-04    5.66      76.2  T

   *** convergence criteria satisfied after 10 iterations ***

         #    Occupation            Energy/Eh            Energy/eV
      -------------------------------------------------------------
         1        2.0000           -0.8091227             -22.0174
       ...           ...                  ...                  ...
        64        2.0000           -0.5048129             -13.7367
        65        2.0000           -0.5024948             -13.6736
        66        2.0000           -0.5005304             -13.6201
        67        2.0000           -0.4975170             -13.5381
        68        2.0000           -0.4947993             -13.4642
        69        2.0000           -0.4907985             -13.3553
        70        2.0000           -0.4897227             -13.3260 (HOMO)
        71                         -0.2817106              -7.6657 (LUMO)
        72                         -0.2782119              -7.5705
        73                         -0.2692509              -7.3267
        74                         -0.2675188              -7.2796
        75                         -0.1630468              -4.4367
       ...                                ...                  ...
       122                          0.5475833              14.9005
      -------------------------------------------------------------
                  HL-Gap            0.2080121 Eh            5.6603 eV
             Fermi-level           -0.3857167 Eh          -10.4959 eV

 SCC (total)                   0 d,  0 h,  0 min,  0.087 sec
 SCC setup                      ...        0 min,  0.000 sec (  0.345%)
 Dispersion                     ...        0 min,  0.001 sec (  0.675%)
 classical contributions        ...        0 min,  0.000 sec (  0.209%)
 integral evaluation            ...        0 min,  0.008 sec (  9.707%)
 iterations                     ...        0 min,  0.048 sec ( 55.547%)
 molecular gradient             ...        0 min,  0.029 sec ( 33.201%)
 printout                       ...        0 min,  0.000 sec (  0.303%)

         :::::::::::::::::::::::::::::::::::::::::::::::::::::
         ::                     SUMMARY                     ::
         :::::::::::::::::::::::::::::::::::::::::::::::::::::
         :: total energy             -80.938245231824 Eh    ::
         :: gradient norm              0.000048661201 Eh/a0 ::
         :: HOMO-LUMO gap              5.660298008785 eV    ::
         ::.................................................::
         :: SCC energy               -81.847925388856 Eh    ::
         :: -> isotropic ES            0.297077192660 Eh    ::
         :: -> anisotropic ES         -0.029175072928 Eh    ::
         :: -> anisotropic XC          0.020145757358 Eh    ::
         :: -> dispersion             -0.047552351221 Eh    ::
         :: repulsion energy           0.907288514273 Eh    ::
         :: add. restraining           0.000000000000 Eh    ::
         :: total charge               1.000000000000 e     ::
         :::::::::::::::::::::::::::::::::::::::::::::::::::::

           ------------------------------------------------- 
          |                Numerical Hessian                |
           ------------------------------------------------- 
step length          :   0.00500
SCC accuracy         :   0.30000
Hessian scale factor :   1.00000
frozen atoms in %    :   0.00000    0
RMS gradient         :   0.00005
estimated CPU  time      0.25 min
estimated wall time      0.25 min

writing file <hessian>.

 projected vibrational frequencies (cm⁻¹)
eigval :       -0.00    -0.00    -0.00    -0.00    -0.00     0.00
eigval :       13.27    18.25    27.06    30.10    38.68    45.44
eigval :       49.12    53.31    55.98    58.22    72.24    76.22
eigval :       80.32    93.85   106.34   116.78   123.57   134.27
eigval :      134.80   146.75   162.81   168.39   178.79   186.73
eigval :      196.19   207.67   229.03   250.15   288.46   291.56
eigval :      300.46   320.17   340.05   353.93   371.14   418.77
eigval :      426.29   433.61   446.57   453.77   461.01   463.57
eigval :      466.13   469.17   471.87   480.19   486.72   489.85
eigval :      493.43   496.88   540.14   548.43   553.88   557.88
eigval :      559.82   603.82   654.54   669.74   672.58   674.52
eigval :      677.05   716.74   736.60   763.18   775.92   788.15
eigval :      916.34   919.17   964.55   968.66   972.58   994.97
eigval :     1000.07  1011.15  1017.71  1020.43  1021.38  1024.86
eigval :     1028.78  1034.95  1037.55  1086.10  1087.23  1087.58
eigval :     1093.52  1102.59  1114.78  1126.01  1164.90  1221.19
eigval :     1244.41  1271.38  1318.19  1327.43  1351.23  1355.00
eigval :     1357.62  1360.92  1384.06  1386.14  1408.58  1411.03
eigval :     1415.46  1435.82  1440.25  1448.80  1450.91  1454.20
eigval :     1454.90  1456.45  1460.68  1463.66  1468.58  1480.26
eigval :     1484.92  1505.88  1511.88  1513.65  1517.59  1657.45
eigval :     1662.26  1691.22  1701.01  2917.01  2976.78  3013.54
eigval :     3015.78  3024.33  3027.07  3040.83  3042.33  3046.52
eigval :     3051.46  3053.26  3060.36  3061.98  3150.31  3152.72
eigval :     3215.51  3301.63  3329.64  3387.54  3481.67  3492.72
eigval :     3498.08  3501.48  3525.26  3532.21  3538.31  3547.24
eigval :     3555.73  3562.45  3567.55
           -------------------------------------------------
          |                Property Printout                |
           -------------------------------------------------

    * Orbital Energies and Occupations

         #    Occupation            Energy/Eh            Energy/eV
      -------------------------------------------------------------
         1        2.0000           -0.8091222             -22.0173
       ...           ...                  ...                  ...
        58        2.0000           -0.5167456             -14.0614
        59        2.0000           -0.5151424             -14.0177
        60        2.0000           -0.5131390             -13.9632
        61        2.0000           -0.5087329             -13.8433
        62        2.0000           -0.5065648             -13.7843
        63        2.0000           -0.5052693             -13.7491
        64        2.0000           -0.5048139             -13.7367
        65        2.0000           -0.5024956             -13.6736
        66        2.0000           -0.5005307             -13.6201
        67        2.0000           -0.4975179             -13.5381
        68        2.0000           -0.4947999             -13.4642
        69        2.0000           -0.4907990             -13.3553
        70        2.0000           -0.4897235             -13.3261 (HOMO)
        71                         -0.2817119              -7.6658 (LUMO)
        72                         -0.2782134              -7.5706
        73                         -0.2692534              -7.3268
        74                         -0.2675201              -7.2796
        75                         -0.1630463              -4.4367
        76                         -0.1119476              -3.0462
        77                         -0.0979091              -2.6642
        78                         -0.0934352              -2.5425
        79                         -0.0859123              -2.3378
        80                         -0.0850410              -2.3141
        81                         -0.0758207              -2.0632
       ...                                ...                  ...
       122                          0.5475816              14.9005
      -------------------------------------------------------------
                  HL-Gap            0.2080116 Eh            5.6603 eV
             Fermi-level           -0.3857177 Eh          -10.4959 eV

     #   Z          covCN         q      C6AA      α(0)
     1   8 O        1.655    -0.456    21.963     6.326
     2   6 C        3.673     0.072    19.600     6.345
     3   1 H        0.924     0.054     2.275     2.359
     4   1 H        0.924     0.046     2.369     2.407
     5   6 C        3.771    -0.078    22.025     6.688
     6   1 H        0.924     0.121     1.609     1.983
     7   1 H        0.925     0.104     1.748     2.068
     8   7 N        3.623     0.155    18.618     6.409
     9   6 C        3.736    -0.115    22.797     6.814
    10   1 H        0.925     0.101     1.779     2.086
    11   1 H        0.925     0.085     1.932     2.174
    12   1 H        0.924     0.127     1.560     1.953
    13   6 C        3.720    -0.107    22.667     6.800
    14   1 H        0.925     0.090     1.876     2.142
    15   1 H        0.925     0.085     1.924     2.169
    16   1 H        0.924     0.121     1.607     1.982
    17   6 C        3.722    -0.103    22.590     6.788
    18   1 H        0.925     0.118     1.626     1.994
    19   1 H        0.925     0.105     1.740     2.063
    20   1 H        0.925     0.080     1.980     2.200
    21   1 H        0.803     0.332     0.634     1.250
    22   6 C        2.675     0.340    21.227     7.539
    23   8 O        0.861    -0.540    24.692     6.662
    24   7 N        2.644    -0.309    27.961     7.853
    25   1 H        0.859     0.245     0.905     1.490
    26   1 H        0.861     0.181     1.211     1.724
    27   7 N        2.645    -0.289    27.444     7.780
    28   1 H        0.861     0.187     1.174     1.698
    29   1 H        0.860     0.202     1.098     1.641
    30   6 C        2.675     0.341    21.213     7.537
    31   8 O        0.860    -0.527    24.387     6.621
    32   7 N        2.645    -0.298    27.670     7.812
    33   1 H        0.860     0.200     1.108     1.649
    34   1 H        0.860     0.191     1.152     1.681
    35   7 N        2.644    -0.320    28.236     7.892
    36   1 H        0.860     0.216     1.027     1.588
    37   1 H        0.860     0.223     0.994     1.562
    38   6 C        2.675     0.340    21.217     7.537
    39   8 O        0.860    -0.550    24.927     6.694
    40   7 N        2.644    -0.298    27.678     7.814
    41   1 H        0.860     0.195     1.132     1.667
    42   1 H        0.860     0.183     1.197     1.714
    43   7 N        2.644    -0.304    27.827     7.835
    44   1 H        0.861     0.180     1.212     1.724
    45   1 H        0.859     0.250     0.885     1.474
    46   6 C        2.675     0.342    21.189     7.532
    47   8 O        0.860    -0.527    24.379     6.620
    48   7 N        2.644    -0.313    28.065     7.868
    49   1 H        0.859     0.239     0.928     1.509
    50   1 H        0.860     0.179     1.222     1.731
    51   7 N        2.645    -0.285    27.354     7.768
    52   1 H        0.861     0.187     1.173     1.697
    53   1 H        0.860     0.204     1.086     1.632

 Mol. C6AA /au·bohr⁶  :      21793.459688
 Mol. C8AA /au·bohr⁸  :     454467.452196
 Mol. α(0) /au        :        220.545503


Wiberg/Mayer (AO) data.
largest (>0.10) Wiberg bond orders for each atom

 ---------------------------------------------------------------------------
     #   Z sym  total        # sym  WBO       # sym  WBO       # sym  WBO
 ---------------------------------------------------------------------------
     1   8 O    1.960 --     2 C    1.024    21 H    0.840
     2   6 C    3.967 --     1 O    1.024     5 C    0.992     3 H    0.964
                             4 H    0.962
     3   1 H    0.997 --     2 C    0.964
     4   1 H    0.998 --     2 C    0.962
     5   6 C    3.920 --     2 C    0.992     7 H    0.954     6 H    0.945
                             8 N    0.928
     6   1 H    0.985 --     5 C    0.945
     7   1 H    0.989 --     5 C    0.954
     8   7 N    3.821 --    13 C    0.961    17 C    0.958     9 C    0.956
                             5 C    0.928
     9   6 C    3.923 --    11 H    0.978    10 H    0.973    12 H    0.960
                             8 N    0.956
    10   1 H    0.990 --     9 C    0.973
    11   1 H    0.993 --     9 C    0.978
    12   1 H    0.984 --     9 C    0.960
    13   6 C    3.929 --    15 H    0.977    14 H    0.974     8 N    0.961
                            16 H    0.960
    14   1 H    0.992 --    13 C    0.974
    15   1 H    0.993 --    13 C    0.977
    16   1 H    0.985 --    13 C    0.960
    17   6 C    3.925 --    20 H    0.979    19 H    0.971    18 H    0.966
                             8 N    0.958
    18   1 H    0.986 --    17 C    0.966
    19   1 H    0.989 --    17 C    0.971
    20   1 H    0.994 --    17 C    0.979
    21   1 H    0.890 --     1 O    0.840
    22   6 C    3.960 --    23 O    1.473    24 N    1.261    27 N    1.214
    23   8 O    1.891 --    22 C    1.473    24 N    0.142    27 N    0.128
    24   7 N    3.344 --    22 C    1.261    26 H    0.948    25 H    0.866
                            23 O    0.142
    25   1 H    0.940 --    24 N    0.866
    26   1 H    0.967 --    24 N    0.948
    27   7 N    3.327 --    22 C    1.214    28 H    0.946    29 H    0.942
                            23 O    0.128
    28   1 H    0.965 --    27 N    0.946
    29   1 H    0.959 --    27 N    0.942
    30   6 C    3.959 --    31 O    1.484    35 N    1.258    32 N    1.201
    31   8 O    1.921 --    30 C    1.484    35 N    0.142    32 N    0.126
    32   7 N    3.308 --    30 C    1.201    34 H    0.944    33 H    0.942
                            31 O    0.126
    33   1 H    0.960 --    32 N    0.942
    34   1 H    0.963 --    32 N    0.944
    35   7 N    3.335 --    30 C    1.258    36 H    0.901    37 H    0.896
                            31 O    0.142
    36   1 H    0.953 --    35 N    0.901
    37   1 H    0.950 --    35 N    0.896
    38   6 C    3.959 --    39 O    1.478    43 N    1.278    40 N    1.193
    39   8 O    1.871 --    38 C    1.478    43 N    0.149    40 N    0.126
    40   7 N    3.304 --    38 C    1.193    42 H    0.948    41 H    0.945
                            39 O    0.126
    41   1 H    0.962 --    40 N    0.945
    42   1 H    0.966 --    40 N    0.948
    43   7 N    3.360 --    38 C    1.278    44 H    0.948    45 H    0.859
                            39 O    0.149
    44   1 H    0.967 --    43 N    0.948
    45   1 H    0.938 --    43 N    0.859
    46   6 C    3.959 --    47 O    1.482    48 N    1.243    51 N    1.222
    47   8 O    1.915 --    46 C    1.482    48 N    0.137    51 N    0.133
    48   7 N    3.326 --    46 C    1.243    50 H    0.948    49 H    0.870
                            47 O    0.137
    49   1 H    0.943 --    48 N    0.870
    50   1 H    0.968 --    48 N    0.948
    51   7 N    3.337 --    46 C    1.222    52 H    0.946    53 H    0.941
                            47 O    0.133
    52   1 H    0.965 --    51 N    0.946
    53   1 H    0.958 --    51 N    0.941
 ---------------------------------------------------------------------------

Topologies differ in total number of bonds
Writing topology from bond orders to xtbtopo.mol

molecular dipole:
                 x           y           z       tot (Debye)
 q only:        1.120      -1.623       0.709
   full:        1.309      -1.097       1.332       5.506
molecular quadrupole (traceless):
                xx          xy          yy          xz          yz          zz
 q only:       12.016      14.185       2.322     -10.420       2.899     -14.338
  q+dip:       18.613      17.542       0.188     -13.433       1.080     -18.801
   full:       19.073      17.579      -0.250     -12.838       1.404     -18.822

           -------------------------------------------------
          |               Frequency Printout                |
           -------------------------------------------------
 projected vibrational frequencies (cm⁻¹)
eigval :       -0.00    -0.00    -0.00    -0.00    -0.00     0.00
eigval :       13.27    18.25    27.06    30.10    38.68    45.44
eigval :       49.12    53.31    55.98    58.22    72.24    76.22
eigval :       80.32    93.85   106.34   116.78   123.57   134.27
eigval :      134.80   146.75   162.81   168.39   178.79   186.73
eigval :      196.19   207.67   229.03   250.15   288.46   291.56
eigval :      300.46   320.17   340.05   353.93   371.14   418.77
eigval :      426.29   433.61   446.57   453.77   461.01   463.57
eigval :      466.13   469.17   471.87   480.19   486.72   489.85
eigval :      493.43   496.88   540.14   548.43   553.88   557.88
eigval :      559.82   603.82   654.54   669.74   672.58   674.52
eigval :      677.05   716.74   736.60   763.18   775.92   788.15
eigval :      916.34   919.17   964.55   968.66   972.58   994.97
eigval :     1000.07  1011.15  1017.71  1020.43  1021.38  1024.86
eigval :     1028.78  1034.95  1037.55  1086.10  1087.23  1087.58
eigval :     1093.52  1102.59  1114.78  1126.01  1164.90  1221.19
eigval :     1244.41  1271.38  1318.19  1327.43  1351.23  1355.00
eigval :     1357.62  1360.92  1384.06  1386.14  1408.58  1411.03
eigval :     1415.46  1435.82  1440.25  1448.80  1450.91  1454.20
eigval :     1454.90  1456.45  1460.68  1463.66  1468.58  1480.26
eigval :     1484.92  1505.88  1511.88  1513.65  1517.59  1657.45
eigval :     1662.26  1691.22  1701.01  2917.01  2976.78  3013.54
eigval :     3015.78  3024.33  3027.07  3040.83  3042.33  3046.52
eigval :     3051.46  3053.26  3060.36  3061.98  3150.31  3152.72
eigval :     3215.51  3301.63  3329.64  3387.54  3481.67  3492.72
eigval :     3498.08  3501.48  3525.26  3532.21  3538.31  3547.24
eigval :     3555.73  3562.45  3567.55
 reduced masses (amu)
   1: 12.76   2: 12.29   3: 12.67   4: 12.44   5: 12.45   6: 12.63   7: 12.03   8: 12.40
   9: 12.20  10: 12.52  11: 12.63  12: 12.33  13: 12.59  14: 12.00  15: 12.54  16: 12.05
  17: 11.42  18: 11.67  19: 10.26  20: 13.46  21: 11.24  22: 13.39  23: 13.40  24: 13.15
  25: 13.21  26: 12.35  27: 12.78  28: 11.29  29: 13.50  30: 12.52  31: 12.78  32: 12.38
  33:  3.31  34:  3.98  35:  3.33  36:  3.13  37:  7.14  38:  4.89  39:  4.44  40:  2.29
  41:  7.22  42:  3.52  43:  8.67  44:  3.70  45:  2.77  46:  3.17  47:  4.72  48:  8.22
  49:  6.47  50:  7.81  51:  6.73  52:  2.47  53:  3.50  54:  3.36  55:  8.29  56:  8.26
  57:  8.09  58: 11.09  59: 11.43  60: 11.59  61: 11.63  62:  2.42  63:  3.53  64: 11.15
  65: 10.69  66: 11.31  67: 11.18  68:  2.91  69:  2.30  70:  9.13  71:  2.27  72:  2.39
  73:  8.15  74:  7.13  75:  5.17  76:  4.98  77:  4.66  78:  7.39  79:  4.96  80:  7.31
  81:  9.35  82:  9.22  83:  6.14  84:  9.99  85:  9.55  86:  5.67  87:  5.29  88:  7.90
  89:  8.51  90:  8.29  91:  8.03  92:  4.04  93:  7.18  94:  7.90  95:  2.87  96:  5.30
  97:  7.35  98:  8.22  99:  6.21 100:  3.11 101:  4.45 102:  4.81 103:  4.59 104:  3.76
 105:  4.85 106:  4.80 107:  2.45 108:  2.56 109:  2.14 110:  2.64 111:  1.60 112:  3.11
 113:  3.32 114:  2.49 115:  2.57 116:  2.17 117:  2.17 118:  2.19 119:  1.65 120:  1.67
 121:  1.69 122:  8.52 123:  9.22 124:  9.07 125:  9.24 126: 12.36 127: 12.37 128: 12.64
 129: 12.67 130:  1.79 131:  1.64 132:  1.70 133:  1.75 134:  1.80 135:  1.71 136:  1.76
 137:  1.69 138:  1.68 139:  1.89 140:  1.85 141:  1.62 142:  1.65 143:  1.81 144:  1.82
 145:  1.79 146:  1.86 147:  1.65 148:  2.08 149:  1.45 150:  1.46 151:  1.45 152:  1.45
 153:  1.90 154:  1.90 155:  1.90 156:  2.18 157:  2.17 158:  2.18 159:  2.19
 IR intensities (km·mol⁻¹)
   1:  0.89   2:  2.10   3:  0.93   4:  1.66   5:  2.07   6:  1.98   7:  0.02   8:  1.73
   9:  0.88  10:  3.50  11:  6.44  12:  0.41  13:  3.08  14:  2.06  15:  0.29  16:  0.65
  17:  1.10  18:  2.25  19:  1.13  20:  0.73  21:  3.86  22:  4.13  23: 12.12  24: 31.56
  25:  6.31  26: 12.24  27:  5.35  28: 15.61  29: 29.90  30: 27.84  31: 10.64  32: 16.69
  33:207.62  34:  2.41  35: 22.09  36: 99.35  37:  9.93  38:  6.28  39:  0.14  40: 57.32
  41:  0.75  42:219.94  43:  8.02  44:263.35  45:279.35  46: 65.29  47: 74.21  48:  1.22
  49: 22.72  50: 20.10  51: 20.33  52:  7.26  53: 56.57  54: 18.28  55: 85.68  56: 55.99
  57:  1.53  58:  1.47  59:  9.42  60: 13.02  61: 38.44  62:126.37  63:165.52  64: 10.22
  65: 15.90  66: 55.53  67: 44.08  68:162.94  69: 33.06  70:  6.30  71:252.36  72:575.14
  73:  2.76  74: 13.99  75:  7.60  76:  3.58  77:  2.84  78: 19.40  79:  8.28  80: 28.99
  81:  7.46  82:  0.80  83: 21.78  84:  0.18  85:  1.47  86:  3.16  87:  3.00  88: 17.33
  89:  0.32  90:  9.54  91:  1.79  92: 22.80  93:  0.85  94: 31.27  95: 22.94  96:  5.33
  97:  2.65  98:  3.70  99:  4.24 100:  7.60 101:141.52 102: 63.97 103:150.53 104:158.65
 105: 17.90 106:  4.84 107: 18.81 108: 21.31 109:  3.96 110: 13.82 111:  0.76 112:  4.45
 113: 16.50 114:  5.52 115:  3.37 116:  5.89 117:  4.92 118:  5.74 119:  6.11 120: 50.21
 121: 14.48 122:419.43 123:640.90 124:473.16 125:400.30 126:503.94 127:251.07 128:******
 129:904.44 130: 22.17 131: 35.28 132:  5.10 133: 16.93 134: 37.98 135: 38.06 136:  1.85
 137:  1.36 138: 17.60 139:  2.89 140:  0.15 141:  2.70 142:  1.16 143:982.87 144: 39.74
 145:****** 146:329.14 147:545.62 148:426.83 149: 20.33 150: 15.30 151: 22.38 152: 25.02
 153: 16.07 154: 14.86 155: 14.48 156: 16.44 157: 12.77 158: 15.74 159: 18.01
 Raman intensities (amu)
Molecule has no symmetry elements
It seems to be the C1 point group
   1:  0.00   2:  0.00   3:  0.00   4:  0.00   5:  0.00   6:  0.00   7:  0.00   8:  0.00
   9:  0.00  10:  0.00  11:  0.00  12:  0.00  13:  0.00  14:  0.00  15:  0.00  16:  0.00
  17:  0.00  18:  0.00  19:  0.00  20:  0.00  21:  0.00  22:  0.00  23:  0.00  24:  0.00
  25:  0.00  26:  0.00  27:  0.00  28:  0.00  29:  0.00  30:  0.00  31:  0.00  32:  0.00
  33:  0.00  34:  0.00  35:  0.00  36:  0.00  37:  0.00  38:  0.00  39:  0.00  40:  0.00
  41:  0.00  42:  0.00  43:  0.00  44:  0.00  45:  0.00  46:  0.00  47:  0.00  48:  0.00
  49:  0.00  50:  0.00  51:  0.00  52:  0.00  53:  0.00  54:  0.00  55:  0.00  56:  0.00
  57:  0.00  58:  0.00  59:  0.00  60:  0.00  61:  0.00  62:  0.00  63:  0.00  64:  0.00
  65:  0.00  66:  0.00  67:  0.00  68:  0.00  69:  0.00  70:  0.00  71:  0.00  72:  0.00
  73:  0.00  74:  0.00  75:  0.00  76:  0.00  77:  0.00  78:  0.00  79:  0.00  80:  0.00
  81:  0.00  82:  0.00  83:  0.00  84:  0.00  85:  0.00  86:  0.00  87:  0.00  88:  0.00
  89:  0.00  90:  0.00  91:  0.00  92:  0.00  93:  0.00  94:  0.00  95:  0.00  96:  0.00
  97:  0.00  98:  0.00  99:  0.00 100:  0.00 101:  0.00 102:  0.00 103:  0.00 104:  0.00
 105:  0.00 106:  0.00 107:  0.00 108:  0.00 109:  0.00 110:  0.00 111:  0.00 112:  0.00
 113:  0.00 114:  0.00 115:  0.00 116:  0.00 117:  0.00 118:  0.00 119:  0.00 120:  0.00
 121:  0.00 122:  0.00 123:  0.00 124:  0.00 125:  0.00 126:  0.00 127:  0.00 128:  0.00
 129:  0.00 130:  0.00 131:  0.00 132:  0.00 133:  0.00 134:  0.00 135:  0.00 136:  0.00
 137:  0.00 138:  0.00 139:  0.00 140:  0.00 141:  0.00 142:  0.00 143:  0.00 144:  0.00
 145:  0.00 146:  0.00 147:  0.00 148:  0.00 149:  0.00 150:  0.00 151:  0.00 152:  0.00
 153:  0.00 154:  0.00 155:  0.00 156:  0.00 157:  0.00 158:  0.00 159:  0.00
 output can be read by thermo (or use thermo option).
 writing <g98.out> molden fake output.
 recommended (thermochemical) frequency scaling factor: 1.0
           -------------------------------------------------
          |             Thermodynamic Functions             |
           -------------------------------------------------

c1  symmetry found (for desy threshold:  0.10E+00) used in thermo

          ...................................................
          :                      SETUP                      :
          :.................................................:
          :  # frequencies                         153      :
          :  # imaginary freq.                       0      :
          :  linear?                             false      :
          :  only rotor calc.                    false      :
          :  symmetry                               c1      :
          :  rotational number                       1      :
          :  scaling factor                  1.0000000      :
          :  rotor cutoff                   50.0000000 cm⁻¹ :
          :  imag. cutoff                  -20.0000000 cm⁻¹ :
          :.................................................:

    mode    ω/cm⁻¹     T·S(HO)/kcal·mol⁻¹    T·S(FR)/kcal·mol⁻¹   T·S(vib)
   ------------------------------------------------------------------------
       1     13.27    -2.22083 (  0.49%)    -1.44934 ( 99.51%)    -1.45315
       2     18.25    -2.03232 (  1.74%)    -1.35508 ( 98.26%)    -1.36688
       3     27.06    -1.79911 (  7.90%)    -1.23839 ( 92.10%)    -1.28268
       4     30.10    -1.73602 ( 11.61%)    -1.20680 ( 88.39%)    -1.26826
       5     38.68    -1.58776 ( 26.38%)    -1.13252 ( 73.62%)    -1.25260
       6     45.44    -1.49273 ( 40.55%)    -1.08485 ( 59.45%)    -1.25024
       7     49.12    -1.44674 ( 48.23%)    -1.06176 ( 51.77%)    -1.24744
       8     53.31    -1.39857 ( 56.37%)    -1.03755 ( 43.63%)    -1.24105
       9     55.98    -1.36974 ( 61.11%)    -1.02305 ( 38.89%)    -1.23490
      10     58.22    -1.34668 ( 64.76%)    -1.01145 ( 35.24%)    -1.22854
      11     72.24    -1.21983 ( 81.34%)    -0.94751 ( 18.66%)    -1.16900
      12     76.22    -1.18843 ( 84.37%)    -0.93164 ( 15.63%)    -1.14830
      13     80.32    -1.15771 ( 86.95%)    -0.91610 ( 13.05%)    -1.12617
      14     93.85    -1.06686 ( 92.54%)    -0.87001 (  7.46%)    -1.05218
      15    106.34    -0.99423 ( 95.34%)    -0.83299 (  4.66%)    -0.98672
      16    116.78    -0.94006 ( 96.75%)    -0.80524 (  3.25%)    -0.93568
      17    123.57    -0.90749 ( 97.39%)    -0.78850 (  2.61%)    -0.90438
      18    134.27    -0.85984 ( 98.11%)    -0.76389 (  1.89%)    -0.85803
      19    134.80    -0.85760 ( 98.14%)    -0.76273 (  1.86%)    -0.85584
      20    146.75    -0.80915 ( 98.67%)    -0.73757 (  1.33%)    -0.80820
      21    162.81    -0.75043 ( 99.12%)    -0.70682 (  0.88%)    -0.75004
      22    168.39    -0.73146 ( 99.23%)    -0.69682 (  0.77%)    -0.73119
      23    178.79    -0.69796 ( 99.39%)    -0.67906 (  0.61%)    -0.69784
      24    186.73    -0.67383 ( 99.49%)    -0.66620 (  0.51%)    -0.67379
      25    196.19    -0.64654 ( 99.58%)    -0.65156 (  0.42%)    -0.64656
      26    207.67    -0.61540 ( 99.67%)    -0.63472 (  0.33%)    -0.61547
      27    229.03    -0.56246 ( 99.77%)    -0.60571 (  0.23%)    -0.56256
      28    250.15    -0.51565 ( 99.84%)    -0.57958 (  0.16%)    -0.51575
      29    288.46    -0.44216 ( 99.91%)    -0.53737 (  0.09%)    -0.44224
      30    291.56    -0.43676 ( 99.91%)    -0.53421 (  0.09%)    -0.43685
   ------------------------------------------------------------------------

   temp. (K)  partition function   enthalpy   heat capacity  entropy
                                   cal/mol     cal/K/mol   cal/K/mol   J/K/mol
 298.15  VIB  0.524E+16            18849.868    103.874    122.537
         ROT  0.103E+08              888.752      2.981     35.064
         INT  0.538E+23            19738.620    106.855    157.601
         TR   0.618E+28             1481.254      4.968     43.384
         TOT                       21219.8740   111.8231   200.9853   840.9226

       T/K    H(0)-H(T)+PV         H(T)/Eh          T*S/Eh         G(T)/Eh
   ------------------------------------------------------------------------
    298.15    0.338160E-01    0.474211E+00    0.954946E-01    0.378716E+00
   ------------------------------------------------------------------------

         :::::::::::::::::::::::::::::::::::::::::::::::::::::
         ::                  THERMODYNAMIC                  ::
         :::::::::::::::::::::::::::::::::::::::::::::::::::::
         :: total free energy         -80.559528761446 Eh   ::
         ::.................................................::
         :: total energy              -80.938245232198 Eh   ::
         :: zero point energy           0.440395067379 Eh   ::
         :: G(RRHO) w/o ZPVE           -0.061678596627 Eh   ::
         :: G(RRHO) contrib.            0.378716470752 Eh   ::
         :::::::::::::::::::::::::::::::::::::::::::::::::::::

           -------------------------------------------------
          | TOTAL ENERGY              -80.938245232198 Eh   |
          | TOTAL ENTHALPY            -80.464034143159 Eh   |
          | TOTAL FREE ENERGY         -80.559528761446 Eh   |
          | GRADIENT NORM               0.000048410305 Eh/α |
          | HOMO-LUMO GAP               5.660283579404 eV   |
           -------------------------------------------------

------------------------------------------------------------------------
 * finished run on 2024/01/10 at 15:33:43.713     
------------------------------------------------------------------------
 total:
 * wall-time:     0 d,  0 h,  0 min, 15.145 sec
 *  cpu-time:     0 d,  0 h,  0 min, 15.062 sec
 * ratio c/w:     0.995 speedup
 SCF:
 * wall-time:     0 d,  0 h,  0 min,  0.087 sec
 *  cpu-time:     0 d,  0 h,  0 min,  0.059 sec
 * ratio c/w:     0.685 speedup
 analytical hessian:
 * wall-time:     0 d,  0 h,  0 min, 15.031 sec
 *  cpu-time:     0 d,  0 h,  0 min, 14.976 sec
 * ratio c/w:     0.996 speedup

